<?xml version="1.0" encoding="UTF-8"?>

<!-- generated on Tue Oct  4 20:50:56 2016 by SUMO Version 0.25.0
<?xml version="1.0" encoding="UTF-8"?>

<configuration xmlns:xsi="http://www.w3.org/2001/XMLSchema-instance" xsi:noNamespaceSchemaLocation="http://sumo.dlr.de/xsd/sumoConfiguration.xsd">

    <input>
        <net-file value="input.net.xml"/>
        <route-files value="input.rou.xml"/>
    </input>

    <output>
        <fcd-output value="input.fcd.xml"/>
    </output>

</configuration>
-->

<fcd-export xmlns:xsi="http://www.w3.org/2001/XMLSchema-instance" xsi:noNamespaceSchemaLocation="http://sumo.dlr.de/xsd/fcd_file.xsd">
    <timestep time="0.00">
        <vehicle id="50" x="4.40" y="998.35" angle="90.00" type="passenger" speed="11.33" pos="4.40" lane="edge1_2" slope="0.00"/>
    </timestep>
    <timestep time="1.00">
        <vehicle id="50" x="18.56" y="998.35" angle="90.00" type="passenger" speed="14.16" pos="18.56" lane="edge1_2" slope="0.00"/>
    </timestep>
    <timestep time="2.00">
        <vehicle id="50" x="33.75" y="998.35" angle="90.00" type="passenger" speed="15.19" pos="33.75" lane="edge1_2" slope="0.00"/>
    </timestep>
    <timestep time="3.00">
        <vehicle id="50" x="48.79" y="998.35" angle="90.00" type="passenger" speed="15.04" pos="48.79" lane="edge1_2" slope="0.00"/>
    </timestep>
    <timestep time="4.00">
        <vehicle id="50" x="64.63" y="998.35" angle="90.00" type="passenger" speed="15.84" pos="64.63" lane="edge1_2" slope="0.00"/>
    </timestep>
    <timestep time="5.00">
        <vehicle id="50" x="79.45" y="998.35" angle="90.00" type="passenger" speed="14.82" pos="79.45" lane="edge1_2" slope="0.00"/>
    </timestep>
    <timestep time="6.00">
        <vehicle id="50" x="94.99" y="995.05" angle="90.00" type="passenger" speed="15.54" pos="94.99" lane="edge1_1" slope="0.00"/>
    </timestep>
    <timestep time="7.00">
        <vehicle id="100" x="4.40" y="995.05" angle="90.00" type="passenger" speed="6.56" pos="4.40" lane="edge1_1" slope="0.00"/>
        <vehicle id="50" x="110.10" y="995.05" angle="90.00" type="passenger" speed="15.11" pos="110.10" lane="edge1_1" slope="0.00"/>
    </timestep>
    <timestep time="8.00">
        <vehicle id="100" x="13.04" y="995.05" angle="90.00" type="passenger" speed="8.64" pos="13.04" lane="edge1_1" slope="0.00"/>
        <vehicle id="50" x="125.35" y="995.05" angle="90.00" type="passenger" speed="15.24" pos="125.35" lane="edge1_1" slope="0.00"/>
        <vehicle id="51" x="4.40" y="995.05" angle="90.00" type="passenger" speed="2.98" pos="4.40" lane="edge1_1" slope="0.00"/>
    </timestep>
    <timestep time="9.00">
        <vehicle id="100" x="23.59" y="995.05" angle="90.00" type="passenger" speed="10.55" pos="23.59" lane="edge1_1" slope="0.00"/>
        <vehicle id="50" x="140.78" y="995.05" angle="90.00" type="passenger" speed="15.43" pos="140.78" lane="edge1_1" slope="0.00"/>
        <vehicle id="51" x="7.31" y="995.05" angle="90.00" type="passenger" speed="2.91" pos="7.31" lane="edge1_1" slope="0.00"/>
    </timestep>
    <timestep time="10.00">
        <vehicle id="100" x="36.59" y="995.05" angle="90.00" type="passenger" speed="13.00" pos="36.59" lane="edge1_1" slope="0.00"/>
        <vehicle id="101" x="4.40" y="991.75" angle="90.00" type="passenger" speed="13.39" pos="4.40" lane="edge1_0" slope="0.00"/>
        <vehicle id="50" x="155.93" y="995.05" angle="90.00" type="passenger" speed="15.16" pos="155.93" lane="edge1_1" slope="0.00"/>
        <vehicle id="51" x="12.21" y="995.05" angle="90.00" type="passenger" speed="4.89" pos="12.21" lane="edge1_1" slope="0.00"/>
    </timestep>
    <timestep time="11.00">
        <vehicle id="100" x="49.88" y="995.05" angle="90.00" type="passenger" speed="13.29" pos="49.88" lane="edge1_1" slope="0.00"/>
        <vehicle id="101" x="19.35" y="991.75" angle="90.00" type="passenger" speed="14.95" pos="19.35" lane="edge1_0" slope="0.00"/>
        <vehicle id="50" x="171.26" y="995.05" angle="90.00" type="passenger" speed="15.32" pos="171.26" lane="edge1_1" slope="0.00"/>
        <vehicle id="51" x="19.66" y="995.05" angle="90.00" type="passenger" speed="7.45" pos="19.66" lane="edge1_1" slope="0.00"/>
    </timestep>
    <timestep time="12.00">
        <vehicle id="100" x="62.84" y="995.05" angle="90.00" type="passenger" speed="12.97" pos="62.84" lane="edge1_1" slope="0.00"/>
        <vehicle id="101" x="35.55" y="991.75" angle="90.00" type="passenger" speed="16.19" pos="35.55" lane="edge1_0" slope="0.00"/>
        <vehicle id="50" x="186.72" y="991.75" angle="90.00" type="passenger" speed="15.46" pos="186.72" lane="edge1_0" slope="0.00"/>
        <vehicle id="51" x="29.78" y="995.05" angle="90.00" type="passenger" speed="10.12" pos="29.78" lane="edge1_1" slope="0.00"/>
        <vehicle id="52" x="4.40" y="991.75" angle="90.00" type="passenger" speed="5.12" pos="4.40" lane="edge1_0" slope="0.00"/>
    </timestep>
    <timestep time="13.00">
        <vehicle id="100" x="75.52" y="995.05" angle="90.00" type="passenger" speed="12.68" pos="75.52" lane="edge1_1" slope="0.00"/>
        <vehicle id="101" x="51.60" y="991.75" angle="90.00" type="passenger" speed="16.06" pos="51.60" lane="edge1_0" slope="0.00"/>
        <vehicle id="50" x="202.43" y="991.75" angle="90.00" type="passenger" speed="15.71" pos="202.43" lane="edge1_0" slope="0.00"/>
        <vehicle id="51" x="42.41" y="995.05" angle="90.00" type="passenger" speed="12.64" pos="42.41" lane="edge1_1" slope="0.00"/>
        <vehicle id="52" x="11.82" y="991.75" angle="90.00" type="passenger" speed="7.42" pos="11.82" lane="edge1_0" slope="0.00"/>
    </timestep>
    <timestep time="14.00">
        <vehicle id="0" x="4.40" y="995.05" angle="90.00" type="passenger" speed="12.43" pos="4.40" lane="edge1_1" slope="0.00"/>
        <vehicle id="100" x="89.24" y="995.05" angle="90.00" type="passenger" speed="13.72" pos="89.24" lane="edge1_1" slope="0.00"/>
        <vehicle id="101" x="67.60" y="991.75" angle="90.00" type="passenger" speed="16.00" pos="67.60" lane="edge1_0" slope="0.00"/>
        <vehicle id="50" x="218.01" y="991.75" angle="90.00" type="passenger" speed="15.58" pos="218.01" lane="edge1_0" slope="0.00"/>
        <vehicle id="51" x="56.39" y="995.05" angle="90.00" type="passenger" speed="13.98" pos="56.39" lane="edge1_1" slope="0.00"/>
        <vehicle id="52" x="21.32" y="991.75" angle="90.00" type="passenger" speed="9.49" pos="21.32" lane="edge1_0" slope="0.00"/>
        <vehicle id="53" x="4.40" y="991.75" angle="90.00" type="passenger" speed="8.33" pos="4.40" lane="edge1_0" slope="0.00"/>
        <vehicle id="54" x="4.40" y="998.35" angle="90.00" type="passenger" speed="9.35" pos="4.40" lane="edge1_2" slope="0.00"/>
    </timestep>
    <timestep time="15.00">
        <vehicle id="0" x="16.76" y="995.05" angle="90.00" type="passenger" speed="12.36" pos="16.76" lane="edge1_1" slope="0.00"/>
        <vehicle id="100" x="101.93" y="995.05" angle="90.00" type="passenger" speed="12.69" pos="101.93" lane="edge1_1" slope="0.00"/>
        <vehicle id="101" x="83.13" y="991.75" angle="90.00" type="passenger" speed="15.53" pos="83.13" lane="edge1_0" slope="0.00"/>
        <vehicle id="50" x="233.46" y="991.75" angle="90.00" type="passenger" speed="15.45" pos="233.46" lane="edge1_0" slope="0.00"/>
        <vehicle id="51" x="71.28" y="995.05" angle="90.00" type="passenger" speed="14.89" pos="71.28" lane="edge1_1" slope="0.00"/>
        <vehicle id="52" x="32.87" y="991.75" angle="90.00" type="passenger" speed="11.55" pos="32.87" lane="edge1_0" slope="0.00"/>
        <vehicle id="53" x="13.96" y="991.75" angle="90.00" type="passenger" speed="9.56" pos="13.96" lane="edge1_0" slope="0.00"/>
        <vehicle id="54" x="15.26" y="998.35" angle="90.00" type="passenger" speed="10.86" pos="15.26" lane="edge1_2" slope="0.00"/>
    </timestep>
    <timestep time="16.00">
        <vehicle id="0" x="28.61" y="995.05" angle="90.00" type="passenger" speed="11.85" pos="28.61" lane="edge1_1" slope="0.00"/>
        <vehicle id="100" x="115.91" y="995.05" angle="90.00" type="passenger" speed="13.98" pos="115.91" lane="edge1_1" slope="0.00"/>
        <vehicle id="101" x="98.96" y="991.75" angle="90.00" type="passenger" speed="15.84" pos="98.96" lane="edge1_0" slope="0.00"/>
        <vehicle id="50" x="249.32" y="991.75" angle="90.00" type="passenger" speed="15.86" pos="249.32" lane="edge1_0" slope="0.00"/>
        <vehicle id="51" x="86.18" y="995.05" angle="90.00" type="passenger" speed="14.90" pos="86.18" lane="edge1_1" slope="0.00"/>
        <vehicle id="52" x="46.53" y="991.75" angle="90.00" type="passenger" speed="13.66" pos="46.53" lane="edge1_0" slope="0.00"/>
        <vehicle id="53" x="24.45" y="991.75" angle="90.00" type="passenger" speed="10.49" pos="24.45" lane="edge1_0" slope="0.00"/>
        <vehicle id="54" x="28.80" y="998.35" angle="90.00" type="passenger" speed="13.54" pos="28.80" lane="edge1_2" slope="0.00"/>
    </timestep>
    <timestep time="17.00">
        <vehicle id="0" x="41.79" y="995.05" angle="90.00" type="passenger" speed="13.17" pos="41.79" lane="edge1_1" slope="0.00"/>
        <vehicle id="100" x="129.72" y="995.05" angle="90.00" type="passenger" speed="13.81" pos="129.72" lane="edge1_1" slope="0.00"/>
        <vehicle id="101" x="115.08" y="991.75" angle="90.00" type="passenger" speed="16.12" pos="115.08" lane="edge1_0" slope="0.00"/>
        <vehicle id="50" x="264.73" y="991.75" angle="90.00" type="passenger" speed="15.41" pos="264.73" lane="edge1_0" slope="0.00"/>
        <vehicle id="51" x="101.26" y="995.05" angle="90.00" type="passenger" speed="15.09" pos="101.26" lane="edge1_1" slope="0.00"/>
        <vehicle id="52" x="61.17" y="991.75" angle="90.00" type="passenger" speed="14.63" pos="61.17" lane="edge1_0" slope="0.00"/>
        <vehicle id="53" x="36.61" y="991.75" angle="90.00" type="passenger" speed="12.17" pos="36.61" lane="edge1_0" slope="0.00"/>
        <vehicle id="54" x="44.03" y="998.35" angle="90.00" type="passenger" speed="15.23" pos="44.03" lane="edge1_2" slope="0.00"/>
    </timestep>
    <timestep time="18.00">
        <vehicle id="0" x="54.51" y="995.05" angle="90.00" type="passenger" speed="12.72" pos="54.51" lane="edge1_1" slope="0.00"/>
        <vehicle id="100" x="143.19" y="995.05" angle="90.00" type="passenger" speed="13.46" pos="143.19" lane="edge1_1" slope="0.00"/>
        <vehicle id="101" x="130.90" y="991.75" angle="90.00" type="passenger" speed="15.82" pos="130.90" lane="edge1_0" slope="0.00"/>
        <vehicle id="102" x="4.40" y="995.05" angle="90.00" type="passenger" speed="11.61" pos="4.40" lane="edge1_1" slope="0.00"/>
        <vehicle id="103" x="4.40" y="998.35" angle="90.00" type="passenger" speed="5.36" pos="4.40" lane="edge1_2" slope="0.00"/>
        <vehicle id="50" x="280.12" y="991.75" angle="90.00" type="passenger" speed="15.39" pos="280.12" lane="edge1_0" slope="0.00"/>
        <vehicle id="51" x="115.53" y="995.05" angle="90.00" type="passenger" speed="14.26" pos="115.53" lane="edge1_1" slope="0.00"/>
        <vehicle id="52" x="76.31" y="991.75" angle="90.00" type="passenger" speed="15.15" pos="76.31" lane="edge1_0" slope="0.00"/>
        <vehicle id="53" x="48.09" y="991.75" angle="90.00" type="passenger" speed="11.48" pos="48.09" lane="edge1_0" slope="0.00"/>
        <vehicle id="54" x="58.67" y="998.35" angle="90.00" type="passenger" speed="14.64" pos="58.67" lane="edge1_2" slope="0.00"/>
    </timestep>
    <timestep time="19.00">
        <vehicle id="0" x="67.09" y="995.05" angle="90.00" type="passenger" speed="12.58" pos="67.09" lane="edge1_1" slope="0.00"/>
        <vehicle id="100" x="156.35" y="995.05" angle="90.00" type="passenger" speed="13.17" pos="156.35" lane="edge1_1" slope="0.00"/>
        <vehicle id="101" x="146.70" y="991.75" angle="90.00" type="passenger" speed="15.80" pos="146.70" lane="edge1_0" slope="0.00"/>
        <vehicle id="102" x="17.85" y="995.05" angle="90.00" type="passenger" speed="13.45" pos="17.85" lane="edge1_1" slope="0.00"/>
        <vehicle id="103" x="11.25" y="998.35" angle="90.00" type="passenger" speed="6.85" pos="11.25" lane="edge1_2" slope="0.00"/>
        <vehicle id="50" x="295.98" y="991.75" angle="90.00" type="passenger" speed="15.87" pos="295.98" lane="edge1_0" slope="0.00"/>
        <vehicle id="51" x="129.34" y="995.05" angle="90.00" type="passenger" speed="13.81" pos="129.34" lane="edge1_1" slope="0.00"/>
        <vehicle id="52" x="91.62" y="991.75" angle="90.00" type="passenger" speed="15.30" pos="91.62" lane="edge1_0" slope="0.00"/>
        <vehicle id="53" x="59.29" y="991.75" angle="90.00" type="passenger" speed="11.20" pos="59.29" lane="edge1_0" slope="0.00"/>
        <vehicle id="54" x="73.83" y="998.35" angle="90.00" type="passenger" speed="15.16" pos="73.83" lane="edge1_2" slope="0.00"/>
    </timestep>
    <timestep time="20.00">
        <vehicle id="0" x="79.36" y="995.05" angle="90.00" type="passenger" speed="12.28" pos="79.36" lane="edge1_1" slope="0.00"/>
        <vehicle id="100" x="169.83" y="995.05" angle="90.00" type="passenger" speed="13.48" pos="169.83" lane="edge1_1" slope="0.00"/>
        <vehicle id="101" x="162.11" y="991.75" angle="90.00" type="passenger" speed="15.41" pos="162.11" lane="edge1_0" slope="0.00"/>
        <vehicle id="102" x="31.77" y="995.05" angle="90.00" type="passenger" speed="13.92" pos="31.77" lane="edge1_1" slope="0.00"/>
        <vehicle id="103" x="20.33" y="998.35" angle="90.00" type="passenger" speed="9.09" pos="20.33" lane="edge1_2" slope="0.00"/>
        <vehicle id="104" x="4.40" y="998.35" angle="90.00" type="passenger" speed="9.11" pos="4.40" lane="edge1_2" slope="0.00"/>
        <vehicle id="105" x="4.40" y="995.05" angle="90.00" type="passenger" speed="4.33" pos="4.40" lane="edge1_1" slope="0.00"/>
        <vehicle id="50" x="310.62" y="991.75" angle="90.00" type="passenger" speed="14.63" pos="310.62" lane="edge1_0" slope="0.00"/>
        <vehicle id="51" x="144.00" y="995.05" angle="90.00" type="passenger" speed="14.66" pos="144.00" lane="edge1_1" slope="0.00"/>
        <vehicle id="52" x="105.66" y="991.75" angle="90.00" type="passenger" speed="14.05" pos="105.66" lane="edge1_0" slope="0.00"/>
        <vehicle id="53" x="71.33" y="991.75" angle="90.00" type="passenger" speed="12.04" pos="71.33" lane="edge1_0" slope="0.00"/>
        <vehicle id="54" x="88.49" y="998.35" angle="90.00" type="passenger" speed="14.66" pos="88.49" lane="edge1_2" slope="0.00"/>
    </timestep>
    <timestep time="21.00">
        <vehicle id="0" x="91.43" y="995.05" angle="90.00" type="passenger" speed="12.06" pos="91.43" lane="edge1_1" slope="0.00"/>
        <vehicle id="100" x="182.93" y="995.05" angle="90.00" type="passenger" speed="13.10" pos="182.93" lane="edge1_1" slope="0.00"/>
        <vehicle id="101" x="177.65" y="991.75" angle="90.00" type="passenger" speed="15.54" pos="177.65" lane="edge1_0" slope="0.00"/>
        <vehicle id="102" x="45.62" y="995.05" angle="90.00" type="passenger" speed="13.85" pos="45.62" lane="edge1_1" slope="0.00"/>
        <vehicle id="103" x="32.11" y="998.35" angle="90.00" type="passenger" speed="11.78" pos="32.11" lane="edge1_2" slope="0.00"/>
        <vehicle id="104" x="12.23" y="998.35" angle="90.00" type="passenger" speed="7.83" pos="12.23" lane="edge1_2" slope="0.00"/>
        <vehicle id="105" x="10.32" y="995.05" angle="90.00" type="passenger" speed="5.92" pos="10.32" lane="edge1_1" slope="0.00"/>
        <vehicle id="106" x="4.40" y="991.75" angle="90.00" type="passenger" speed="10.42" pos="4.40" lane="edge1_0" slope="0.00"/>
        <vehicle id="50" x="325.98" y="991.75" angle="90.00" type="passenger" speed="15.36" pos="325.98" lane="edge1_0" slope="0.00"/>
        <vehicle id="51" x="157.74" y="995.05" angle="90.00" type="passenger" speed="13.74" pos="157.74" lane="edge1_1" slope="0.00"/>
        <vehicle id="52" x="121.05" y="991.75" angle="90.00" type="passenger" speed="15.39" pos="121.05" lane="edge1_0" slope="0.00"/>
        <vehicle id="53" x="83.23" y="991.75" angle="90.00" type="passenger" speed="11.90" pos="83.23" lane="edge1_0" slope="0.00"/>
        <vehicle id="54" x="103.14" y="998.35" angle="90.00" type="passenger" speed="14.65" pos="103.14" lane="edge1_2" slope="0.00"/>
    </timestep>
    <timestep time="22.00">
        <vehicle id="0" x="103.52" y="995.05" angle="90.00" type="passenger" speed="12.10" pos="103.52" lane="edge1_1" slope="0.00"/>
        <vehicle id="100" x="195.76" y="995.05" angle="90.00" type="passenger" speed="12.83" pos="195.76" lane="edge1_1" slope="0.00"/>
        <vehicle id="101" x="192.90" y="991.75" angle="90.00" type="passenger" speed="15.25" pos="192.90" lane="edge1_0" slope="0.00"/>
        <vehicle id="102" x="58.32" y="995.05" angle="90.00" type="passenger" speed="12.70" pos="58.32" lane="edge1_1" slope="0.00"/>
        <vehicle id="103" x="44.11" y="998.35" angle="90.00" type="passenger" speed="12.00" pos="44.11" lane="edge1_2" slope="0.00"/>
        <vehicle id="104" x="22.56" y="998.35" angle="90.00" type="passenger" speed="10.33" pos="22.56" lane="edge1_2" slope="0.00"/>
        <vehicle id="105" x="18.34" y="995.05" angle="90.00" type="passenger" speed="8.02" pos="18.34" lane="edge1_1" slope="0.00"/>
        <vehicle id="106" x="17.57" y="991.75" angle="90.00" type="passenger" speed="13.17" pos="17.57" lane="edge1_0" slope="0.00"/>
        <vehicle id="50" x="341.33" y="995.05" angle="90.00" type="passenger" speed="15.35" pos="341.33" lane="edge1_1" slope="0.00"/>
        <vehicle id="51" x="171.97" y="998.35" angle="90.00" type="passenger" speed="14.23" pos="171.97" lane="edge1_2" slope="0.00"/>
        <vehicle id="52" x="135.65" y="991.75" angle="90.00" type="passenger" speed="14.60" pos="135.65" lane="edge1_0" slope="0.00"/>
        <vehicle id="53" x="94.86" y="991.75" angle="90.00" type="passenger" speed="11.63" pos="94.86" lane="edge1_0" slope="0.00"/>
        <vehicle id="54" x="118.20" y="998.35" angle="90.00" type="passenger" speed="15.06" pos="118.20" lane="edge1_2" slope="0.00"/>
    </timestep>
    <timestep time="23.00">
        <vehicle id="0" x="116.81" y="995.05" angle="90.00" type="passenger" speed="13.29" pos="116.81" lane="edge1_1" slope="0.00"/>
        <vehicle id="100" x="209.34" y="995.05" angle="90.00" type="passenger" speed="13.58" pos="209.34" lane="edge1_1" slope="0.00"/>
        <vehicle id="101" x="207.83" y="991.75" angle="90.00" type="passenger" speed="14.93" pos="207.83" lane="edge1_0" slope="0.00"/>
        <vehicle id="102" x="71.43" y="995.05" angle="90.00" type="passenger" speed="13.11" pos="71.43" lane="edge1_1" slope="0.00"/>
        <vehicle id="103" x="55.68" y="998.35" angle="90.00" type="passenger" speed="11.57" pos="55.68" lane="edge1_2" slope="0.00"/>
        <vehicle id="104" x="35.08" y="998.35" angle="90.00" type="passenger" speed="12.53" pos="35.08" lane="edge1_2" slope="0.00"/>
        <vehicle id="105" x="27.93" y="995.05" angle="90.00" type="passenger" speed="9.59" pos="27.93" lane="edge1_1" slope="0.00"/>
        <vehicle id="106" x="32.12" y="991.75" angle="90.00" type="passenger" speed="14.55" pos="32.12" lane="edge1_0" slope="0.00"/>
        <vehicle id="50" x="356.55" y="995.05" angle="90.00" type="passenger" speed="15.22" pos="356.55" lane="edge1_1" slope="0.00"/>
        <vehicle id="51" x="187.10" y="998.35" angle="90.00" type="passenger" speed="15.13" pos="187.10" lane="edge1_2" slope="0.00"/>
        <vehicle id="52" x="150.86" y="991.75" angle="90.00" type="passenger" speed="15.21" pos="150.86" lane="edge1_0" slope="0.00"/>
        <vehicle id="53" x="106.82" y="991.75" angle="90.00" type="passenger" speed="11.96" pos="106.82" lane="edge1_0" slope="0.00"/>
        <vehicle id="54" x="132.47" y="998.35" angle="90.00" type="passenger" speed="14.26" pos="132.47" lane="edge1_2" slope="0.00"/>
        <vehicle id="55" x="4.40" y="998.35" angle="90.00" type="passenger" speed="15.31" pos="4.40" lane="edge1_2" slope="0.00"/>
    </timestep>
    <timestep time="24.00">
        <vehicle id="0" x="129.88" y="995.05" angle="90.00" type="passenger" speed="13.07" pos="129.88" lane="edge1_1" slope="0.00"/>
        <vehicle id="1" x="4.40" y="998.35" angle="90.00" type="passenger" speed="6.61" pos="4.40" lane="edge1_2" slope="0.00"/>
        <vehicle id="100" x="223.12" y="995.05" angle="90.00" type="passenger" speed="13.77" pos="223.12" lane="edge1_1" slope="0.00"/>
        <vehicle id="101" x="222.72" y="991.75" angle="90.00" type="passenger" speed="14.88" pos="222.72" lane="edge1_0" slope="0.00"/>
        <vehicle id="102" x="84.85" y="995.05" angle="90.00" type="passenger" speed="13.42" pos="84.85" lane="edge1_1" slope="0.00"/>
        <vehicle id="103" x="67.96" y="998.35" angle="90.00" type="passenger" speed="12.28" pos="67.96" lane="edge1_2" slope="0.00"/>
        <vehicle id="104" x="46.32" y="998.35" angle="90.00" type="passenger" speed="11.24" pos="46.32" lane="edge1_2" slope="0.00"/>
        <vehicle id="105" x="39.95" y="995.05" angle="90.00" type="passenger" speed="12.02" pos="39.95" lane="edge1_1" slope="0.00"/>
        <vehicle id="106" x="46.60" y="991.75" angle="90.00" type="passenger" speed="14.48" pos="46.60" lane="edge1_0" slope="0.00"/>
        <vehicle id="107" x="4.40" y="995.05" angle="90.00" type="passenger" speed="11.15" pos="4.40" lane="edge1_1" slope="0.00"/>
        <vehicle id="50" x="371.96" y="995.05" angle="90.00" type="passenger" speed="15.42" pos="371.96" lane="edge1_1" slope="0.00"/>
        <vehicle id="51" x="201.02" y="998.35" angle="90.00" type="passenger" speed="13.92" pos="201.02" lane="edge1_2" slope="0.00"/>
        <vehicle id="52" x="165.18" y="991.75" angle="90.00" type="passenger" speed="14.32" pos="165.18" lane="edge1_0" slope="0.00"/>
        <vehicle id="53" x="118.62" y="991.75" angle="90.00" type="passenger" speed="11.79" pos="118.62" lane="edge1_0" slope="0.00"/>
        <vehicle id="54" x="146.97" y="998.35" angle="90.00" type="passenger" speed="14.50" pos="146.97" lane="edge1_2" slope="0.00"/>
        <vehicle id="55" x="20.54" y="998.35" angle="90.00" type="passenger" speed="16.14" pos="20.54" lane="edge1_2" slope="0.00"/>
    </timestep>
    <timestep time="25.00">
        <vehicle id="0" x="141.94" y="995.05" angle="90.00" type="passenger" speed="12.06" pos="141.94" lane="edge1_1" slope="0.00"/>
        <vehicle id="1" x="13.77" y="998.35" angle="90.00" type="passenger" speed="9.37" pos="13.77" lane="edge1_2" slope="0.00"/>
        <vehicle id="100" x="236.83" y="995.05" angle="90.00" type="passenger" speed="13.71" pos="236.83" lane="edge1_1" slope="0.00"/>
        <vehicle id="101" x="238.63" y="991.75" angle="90.00" type="passenger" speed="15.91" pos="238.63" lane="edge1_0" slope="0.00"/>
        <vehicle id="102" x="98.24" y="995.05" angle="90.00" type="passenger" speed="13.39" pos="98.24" lane="edge1_1" slope="0.00"/>
        <vehicle id="103" x="80.63" y="998.35" angle="90.00" type="passenger" speed="12.67" pos="80.63" lane="edge1_2" slope="0.00"/>
        <vehicle id="104" x="58.74" y="998.35" angle="90.00" type="passenger" speed="12.42" pos="58.74" lane="edge1_2" slope="0.00"/>
        <vehicle id="105" x="54.59" y="995.05" angle="90.00" type="passenger" speed="14.64" pos="54.59" lane="edge1_1" slope="0.00"/>
        <vehicle id="106" x="60.97" y="991.75" angle="90.00" type="passenger" speed="14.37" pos="60.97" lane="edge1_0" slope="0.00"/>
        <vehicle id="107" x="17.96" y="995.05" angle="90.00" type="passenger" speed="13.56" pos="17.96" lane="edge1_1" slope="0.00"/>
        <vehicle id="50" x="387.40" y="995.05" angle="90.00" type="passenger" speed="15.43" pos="387.40" lane="edge1_1" slope="0.00"/>
        <vehicle id="51" x="215.95" y="998.35" angle="90.00" type="passenger" speed="14.93" pos="215.95" lane="edge1_2" slope="0.00"/>
        <vehicle id="52" x="180.30" y="991.75" angle="90.00" type="passenger" speed="15.12" pos="180.30" lane="edge1_0" slope="0.00"/>
        <vehicle id="53" x="130.80" y="991.75" angle="90.00" type="passenger" speed="12.18" pos="130.80" lane="edge1_0" slope="0.00"/>
        <vehicle id="54" x="161.82" y="995.05" angle="90.00" type="passenger" speed="14.85" pos="161.82" lane="edge1_1" slope="0.00"/>
        <vehicle id="55" x="35.44" y="998.35" angle="90.00" type="passenger" speed="14.91" pos="35.44" lane="edge1_2" slope="0.00"/>
    </timestep>
    <timestep time="26.00">
        <vehicle id="0" x="155.05" y="995.05" angle="90.00" type="passenger" speed="13.12" pos="155.05" lane="edge1_1" slope="0.00"/>
        <vehicle id="1" x="24.89" y="998.35" angle="90.00" type="passenger" speed="11.12" pos="24.89" lane="edge1_2" slope="0.00"/>
        <vehicle id="100" x="249.83" y="995.05" angle="90.00" type="passenger" speed="13.00" pos="249.83" lane="edge1_1" slope="0.00"/>
        <vehicle id="101" x="254.28" y="991.75" angle="90.00" type="passenger" speed="15.66" pos="254.28" lane="edge1_0" slope="0.00"/>
        <vehicle id="102" x="111.65" y="995.05" angle="90.00" type="passenger" speed="13.41" pos="111.65" lane="edge1_1" slope="0.00"/>
        <vehicle id="103" x="93.16" y="998.35" angle="90.00" type="passenger" speed="12.53" pos="93.16" lane="edge1_2" slope="0.00"/>
        <vehicle id="104" x="71.28" y="998.35" angle="90.00" type="passenger" speed="12.55" pos="71.28" lane="edge1_2" slope="0.00"/>
        <vehicle id="105" x="69.98" y="995.05" angle="90.00" type="passenger" speed="15.38" pos="69.98" lane="edge1_1" slope="0.00"/>
        <vehicle id="106" x="76.63" y="991.75" angle="90.00" type="passenger" speed="15.66" pos="76.63" lane="edge1_0" slope="0.00"/>
        <vehicle id="107" x="31.01" y="995.05" angle="90.00" type="passenger" speed="13.05" pos="31.01" lane="edge1_1" slope="0.00"/>
        <vehicle id="50" x="402.21" y="995.05" angle="90.00" type="passenger" speed="14.81" pos="402.21" lane="edge1_1" slope="0.00"/>
        <vehicle id="51" x="229.74" y="998.35" angle="90.00" type="passenger" speed="13.79" pos="229.74" lane="edge1_2" slope="0.00"/>
        <vehicle id="52" x="195.64" y="991.75" angle="90.00" type="passenger" speed="15.33" pos="195.64" lane="edge1_0" slope="0.00"/>
        <vehicle id="53" x="142.44" y="991.75" angle="90.00" type="passenger" speed="11.64" pos="142.44" lane="edge1_0" slope="0.00"/>
        <vehicle id="54" x="176.54" y="995.05" angle="90.00" type="passenger" speed="14.72" pos="176.54" lane="edge1_1" slope="0.00"/>
        <vehicle id="55" x="49.07" y="998.35" angle="90.00" type="passenger" speed="13.63" pos="49.07" lane="edge1_2" slope="0.00"/>
        <vehicle id="56" x="4.40" y="991.75" angle="90.00" type="passenger" speed="5.67" pos="4.40" lane="edge1_0" slope="0.00"/>
    </timestep>
    <timestep time="27.00">
        <vehicle id="0" x="167.69" y="995.05" angle="90.00" type="passenger" speed="12.63" pos="167.69" lane="edge1_1" slope="0.00"/>
        <vehicle id="1" x="37.48" y="998.35" angle="90.00" type="passenger" speed="12.59" pos="37.48" lane="edge1_2" slope="0.00"/>
        <vehicle id="100" x="263.11" y="995.05" angle="90.00" type="passenger" speed="13.28" pos="263.11" lane="edge1_1" slope="0.00"/>
        <vehicle id="101" x="269.95" y="991.75" angle="90.00" type="passenger" speed="15.67" pos="269.95" lane="edge1_0" slope="0.00"/>
        <vehicle id="102" x="125.40" y="995.05" angle="90.00" type="passenger" speed="13.75" pos="125.40" lane="edge1_1" slope="0.00"/>
        <vehicle id="103" x="104.94" y="998.35" angle="90.00" type="passenger" speed="11.78" pos="104.94" lane="edge1_2" slope="0.00"/>
        <vehicle id="104" x="84.21" y="998.35" angle="90.00" type="passenger" speed="12.93" pos="84.21" lane="edge1_2" slope="0.00"/>
        <vehicle id="105" x="84.04" y="995.05" angle="90.00" type="passenger" speed="14.07" pos="84.04" lane="edge1_1" slope="0.00"/>
        <vehicle id="106" x="92.32" y="991.75" angle="90.00" type="passenger" speed="15.69" pos="92.32" lane="edge1_0" slope="0.00"/>
        <vehicle id="107" x="44.57" y="995.05" angle="90.00" type="passenger" speed="13.57" pos="44.57" lane="edge1_1" slope="0.00"/>
        <vehicle id="50" x="417.78" y="995.05" angle="90.00" type="passenger" speed="15.57" pos="417.78" lane="edge1_1" slope="0.00"/>
        <vehicle id="51" x="243.75" y="998.35" angle="90.00" type="passenger" speed="14.01" pos="243.75" lane="edge1_2" slope="0.00"/>
        <vehicle id="52" x="210.93" y="991.75" angle="90.00" type="passenger" speed="15.30" pos="210.93" lane="edge1_0" slope="0.00"/>
        <vehicle id="53" x="154.14" y="991.75" angle="90.00" type="passenger" speed="11.70" pos="154.14" lane="edge1_0" slope="0.00"/>
        <vehicle id="54" x="190.86" y="995.05" angle="90.00" type="passenger" speed="14.32" pos="190.86" lane="edge1_1" slope="0.00"/>
        <vehicle id="55" x="62.78" y="998.35" angle="90.00" type="passenger" speed="13.70" pos="62.78" lane="edge1_2" slope="0.00"/>
        <vehicle id="56" x="12.13" y="991.75" angle="90.00" type="passenger" speed="7.73" pos="12.13" lane="edge1_0" slope="0.00"/>
    </timestep>
    <timestep time="28.00">
        <vehicle id="0" x="180.94" y="995.05" angle="90.00" type="passenger" speed="13.25" pos="180.94" lane="edge1_1" slope="0.00"/>
        <vehicle id="1" x="51.91" y="998.35" angle="90.00" type="passenger" speed="14.43" pos="51.91" lane="edge1_2" slope="0.00"/>
        <vehicle id="100" x="276.88" y="995.05" angle="90.00" type="passenger" speed="13.77" pos="276.88" lane="edge1_1" slope="0.00"/>
        <vehicle id="101" x="285.09" y="991.75" angle="90.00" type="passenger" speed="15.14" pos="285.09" lane="edge1_0" slope="0.00"/>
        <vehicle id="102" x="139.42" y="995.05" angle="90.00" type="passenger" speed="14.02" pos="139.42" lane="edge1_1" slope="0.00"/>
        <vehicle id="103" x="117.30" y="998.35" angle="90.00" type="passenger" speed="12.35" pos="117.30" lane="edge1_2" slope="0.00"/>