<?xml version="1.0" encoding="UTF-8"?>

<!-- generated on Thu 23 Feb 2017 08:32:37 AM PST by SUMO gui Version 0.25.0
<?xml version="1.0" encoding="UTF-8"?>

<configuration xmlns:xsi="http://www.w3.org/2001/XMLSchema-instance" xsi:noNamespaceSchemaLocation="http://sumo.dlr.de/xsd/sumo-gui.exeConfiguration.xsd">

    <input>
        <net-file value="/home/dance-in-dark/SUMO/route1/mySUMONet.net.xml"/>
        <route-files value="/home/dance-in-dark/SUMO/route1/ex_ROU.rou.xml"/>
    </input>

    <output>
        <netstate-dump value="/home/dance-in-dark/SUMO/route1/ex_sumo.sumo.tr"/>
        <emission-output value="/home/dance-in-dark/SUMO/route1/output-emissions.xml"/>
        <tripinfo-output value="/home/dance-in-dark/SUMO/route1/output-tripinfos.xml"/>
        <vehroute-output value="/home/dance-in-dark/SUMO/route1/output-vehroutes.xml"/>
        <save-state.prefix value="/home/dance-in-dark/SUMO/route1/state"/>
    </output>

    <time>
        <begin value="0"/>
        <end value="2000"/>
    </time>

    <processing>
        <route-steps value="-1"/>
        <time-to-teleport value="-1"/>
    </processing>

    <report>
        <print-options value="false"/>
    </report>

    <emissions>
        <phemlight-path value="/home/dance-in-dark/SUMO/route1/./PHEMlight/"/>
    </emissions>

    <random_number>
        <seed value="23423"/>
    </random_number>

</configuration>
-->

<routes xmlns:xsi="http://www.w3.org/2001/XMLSchema-instance" xsi:noNamespaceSchemaLocation="http://sumo.dlr.de/xsd/routes_file.xsd">
    <vehicle id="flow0.0" depart="0.00" arrival="37.00">
        <route edges="edgeD-2-1 edgeL-2-0"/>
    </vehicle>

    <vehicle id="flow10.0" depart="0.00" arrival="38.00">
        <route edges="edgeL-2-1 edgeU-2-1"/>
    </vehicle>

    <vehicle id="flow1.0" depart="3.00" arrival="42.00">
        <route edges="edgeD-2-1 edgeR-2-1"/>
    </vehicle>

    <vehicle id="flow2.0" depart="6.00" arrival="46.00">
        <route edges="edgeD-2-1 edgeD-1-1"/>
    </vehicle>

    <vehicle id="flow3.0" depart="0.00" arrival="48.00">
        <route edges="edgeR-2-0 edgeU-2-1"/>
    </vehicle>

    <vehicle id="flow7.0" depart="3.00" arrival="48.00">
        <route edges="edgeU-1-1 edgeR-2-1"/>
    </vehicle>

    <vehicle id="flow11.0" depart="3.00" arrival="48.00">
        <route edges="edgeL-2-1 edgeL-2-0"/>
    </vehicle>

    <vehicle id="flow6.0" depart="0.00" arrival="52.00">
        <route edges="edgeU-1-1 edgeL-2-0"/>
    </vehicle>

    <vehicle id="flow4.0" depart="3.00" arrival="54.00">
        <route edges="edgeR-2-0 edgeR-2-1"/>
    </vehicle>

    <vehicle id="flow8.0" depart="6.00" arrival="55.00">
        <route edges="edgeU-1-1 edgeU-2-1"/>
    </vehicle>

    <vehicle id="flow5.0" depart="6.00" arrival="55.00">
        <route edges="edgeR-2-0 edgeD-1-1"/>
    </vehicle>

    <vehicle id="flow10.1" depart="20.00" arrival="57.00">
        <route edges="edgeL-2-1 edgeU-2-1"/>
    </vehicle>

    <vehicle id="flow0.1" depart="20.00" arrival="58.00">
        <route edges="edgeD-2-1 edgeL-2-0"/>
    </vehicle>

    <vehicle id="flow12.0" depart="6.00" arrival="59.00">
        <route edges="edgeL-2-1 edgeD-1-1"/>
    </vehicle>

    <vehicle id="flow9.0" depart="9.00" arrival="61.00">
        <route edges="edgeU-1-1 edgeL-2-0"/>
    </vehicle>

    <vehicle id="flow1.1" depart="23.00" arrival="63.00">
        <route edges="edgeD-2-1 edgeR-2-1"/>
    </vehicle>

    <vehicle id="flow6.1" depart="20.00" arrival="65.00">
        <route edges="edgeU-1-1 edgeL-2-0"/>
    </vehicle>

    <vehicle id="flow7.1" depart="23.00" arrival="67.00">
        <route edges="edgeU-1-1 edgeR-2-1"/>
    </vehicle>

    <vehicle id="flow3.1" depart="20.00" arrival="69.00">
        <route edges="edgeR-2-0 edgeU-2-1"/>
    </vehicle>

    <vehicle id="flow4.1" depart="23.00" arrival="70.00">
        <route edges="edgeR-2-0 edgeR-2-1"/>
    </vehicle>

    <vehicle id="flow11.1" depart="23.00" arrival="70.00">
        <route edges="edgeL-2-1 edgeL-2-0"/>
    </vehicle>

    <vehicle id="flow8.1" depart="26.00" arrival="71.00">
        <route edges="edgeU-1-1 edgeU-2-1"/>
    </vehicle>

    <vehicle id="flow5.1" depart="26.00" arrival="72.00">
        <route edges="edgeR-2-0 edgeD-1-1"/>
    </vehicle>

    <vehicle id="flow12.1" depart="26.00" arrival="76.00">
        <route edges="edgeL-2-1 edgeD-1-1"/>
    </vehicle>

    <vehicle id="flow2.1" depart="26.00" arrival="77.00">
        <route edges="edgeD-2-1 edgeD-1-1"/>
    </vehicle>

    <vehicle id="flow10.2" depart="40.00" arrival="77.00">
        <route edges="edgeL-2-1 edgeU-2-1"/>
    </vehicle>

    <vehicle id="flow0.2" depart="40.00" arrival="79.00">
        <route edges="edgeD-2-1 edgeL-2-0"/>
    </vehicle>

    <vehicle id="flow1.2" depart="43.00" arrival="83.00">
        <route edges="edgeD-2-1 edgeR-2-1"/>
    </vehicle>

    <vehicle id="flow9.1" depart="29.00" arrival="83.00">
        <route edges="edgeU-1-1 edgeL-2-0"/>
    </vehicle>

    <vehicle id="flow8.2" depart="46.00" arrival="84.00">
        <route edges="edgeU-1-1 edgeU-2-1"/>
    </vehicle>

    <vehicle id="flow6.2" depart="40.00" arrival="85.00">
        <route edges="edgeU-1-1 edgeL-2-0"/>
    </vehicle>

    <vehicle id="flow3.2" depart="40.00" arrival="89.00">
        <route edges="edgeR-2-0 edgeU-2-1"/>
    </vehicle>

    <vehicle id="flow11.2" depart="43.00" arrival="89.00">
        <route edges="edgeL-2-1 edgeL-2-0"/>
    </vehicle>

    <vehicle id="flow7.2" depart="43.00" arrival="90.00">
        <route edges="edgeU-1-1 edgeR-2-1"/>
    </vehicle>

    <vehicle id="flow4.2" depart="43.00" arrival="95.00">
        <route edges="edgeR-2-0 edgeR-2-1"/>
    </vehicle>

    <vehicle id="flow5.2" depart="46.00" arrival="95.00">
        <route edges="edgeR-2-0 edgeD-1-1"/>
    </vehicle>

    <vehicle id="flow10.3" depart="60.00" arrival="98.00">
        <route edges="edgeL-2-1 edgeU-2-1"/>
    </vehicle>

    <vehicle id="flow2.2" depart="46.00" arrival="100.00">
        <route edges="edgeD-2-1 edgeD-1-1"/>
    </vehicle>

    <vehicle id="flow0.3" depart="60.00" arrival="101.00">
        <route edges="edgeD-2-1 edgeL-2-0"/>
    </vehicle>

    <vehicle id="flow12.2" depart="46.00" arrival="102.00">
        <route edges="edgeL-2-1 edgeD-1-1"/>
    </vehicle>

    <vehicle id="flow1.3" depart="63.00" arrival="104.00">
        <route edges="edgeD-2-1 edgeR-2-1"/>
    </vehicle>

    <vehicle id="flow9.2" depart="49.00" arrival="105.00">
        <route edges="edgeU-1-1 edgeL-2-0"/>
    </vehicle>

    <vehicle id="flow3.3" depart="60.00" arrival="106.00">
        <route edges="edgeR-2-0 edgeU-2-1"/>
    </vehicle>

    <vehicle id="flow7.3" depart="63.00" arrival="108.00">
        <route edges="edgeU-1-1 edgeR-2-1"/>
    </vehicle>

    <vehicle id="flow11.3" depart="63.00" arrival="108.00">
        <route edges="edgeL-2-1 edgeL-2-0"/>
    </vehicle>

    <vehicle id="flow2.3" depart="66.00" arrival="109.00">
        <route edges="edgeD-2-1 edgeD-1-1"/>
    </vehicle>

    <vehicle id="flow8.3" depart="66.00" arrival="112.00">
        <route edges="edgeU-1-1 edgeU-2-1"/>
    </vehicle>

    <vehicle id="flow4.3" depart="63.00" arrival="114.00">
        <route edges="edgeR-2-0 edgeR-2-1"/>
    </vehicle>

    <vehicle id="flow5.3" depart="66.00" arrival="116.00">
        <route edges="edgeR-2-0 edgeD-1-1"/>
    </vehicle>

    <vehicle id="flow10.4" depart="80.00" arrival="117.00">
        <route edges="edgeL-2-1 edgeU-2-1"/>
    </vehicle>

    <vehicle id="flow0.4" depart="80.00" arrival="117.00">
        <route edges="edgeD-2-1 edgeL-2-0"/>
    </vehicle>

    <vehicle id="flow1.4" depart="83.00" arrival="121.00">
        <route edges="edgeD-2-1 edgeR-2-1"/>
    </vehicle>

    <vehicle id="flow6.3" depart="60.00" arrival="121.00">
        <route edges="edgeU-1-1 edgeL-2-0"/>
    </vehicle>

    <vehicle id="flow9.3" depart="69.00" arrival="123.00">
        <route edges="edgeU-1-1 edgeL-2-0"/>
    </vehicle>

    <vehicle id="flow3.4" depart="80.00" arrival="127.00">
        <route edges="edgeR-2-0 edgeU-2-1"/>
    </vehicle>

    <vehicle id="flow12.3" depart="66.00" arrival="127.00">
        <route edges="edgeL-2-1 edgeD-1-1"/>
    </vehicle>

    <vehicle id="flow7.4" depart="83.00" arrival="128.00">
        <route edges="edgeU-1-1 edgeR-2-1"/>
    </vehicle>

    <vehicle id="flow8.4" depart="86.00" arrival="129.00">
        <route edges="edgeU-1-1 edgeU-2-1"/>
    </vehicle>

    <vehicle id="flow11.4" depart="83.00" arrival="130.00">
        <route edges="edgeL-2-1 edgeL-2-0"/>
    </vehicle>

    <vehicle id="flow4.4" depart="82.00" arrival="133.00">
        <route edges="edgeR-2-0 edgeR-2-1"/>
    </vehicle>

    <vehicle id="flow5.4" depart="86.00" arrival="134.00">
        <route edges="edgeR-2-0 edgeD-1-1"/>
    </vehicle>

    <vehicle id="flow2.4" depart="86.00" arrival="137.00">
        <route edges="edgeD-2-1 edgeD-1-1"/>
    </vehicle>

    <vehicle id="flow12.4" depart="86.00" arrival="139.00">
        <route edges="edgeL-2-1 edgeD-1-1"/>
    </vehicle>

    <vehicle id="flow10.5" depart="100.00" arrival="139.00">
        <route edges="edgeL-2-1 edgeU-2-1"/>
    </vehicle>

    <vehicle id="flow0.5" depart="100.00" arrival="139.00">
        <route edges="edgeD-2-1 edgeL-2-0"/>
    </vehicle>

    <vehicle id="flow1.5" depart="103.00" arrival="142.00">
        <route edges="edgeD-2-1 edgeR-2-1"/>
    </vehicle>

    <vehicle id="flow6.4" depart="80.00" arrival="144.00">
        <route edges="edgeU-1-1 edgeL-2-0"/>
    </vehicle>

    <vehicle id="flow9.4" depart="89.00" arrival="145.00">
        <route edges="edgeU-1-1 edgeL-2-0"/>
    </vehicle>

    <vehicle id="flow3.5" depart="100.00" arrival="146.00">
        <route edges="edgeR-2-0 edgeU-2-1"/>
    </vehicle>

    <vehicle id="flow7.5" depart="103.00" arrival="148.00">
        <route edges="edgeU-1-1 edgeR-2-1"/>
    </vehicle>

    <vehicle id="flow2.5" depart="106.00" arrival="148.00">
        <route edges="edgeD-2-1 edgeD-1-1"/>
    </vehicle>

    <vehicle id="flow11.5" depart="103.00" arrival="148.00">
        <route edges="edgeL-2-1 edgeL-2-0"/>
    </vehicle>

    <vehicle id="flow8.5" depart="106.00" arrival="150.00">
        <route edges="edgeU-1-1 edgeU-2-1"/>
    </vehicle>

    <vehicle id="flow4.5" depart="103.00" arrival="153.00">
        <route edges="edgeR-2-0 edgeR-2-1"/>
    </vehicle>

    <vehicle id="flow5.5" depart="106.00" arrival="153.00">
        <route edges="edgeR-2-0 edgeD-1-1"/>
    </vehicle>

    <vehicle id="flow6.5" depart="100.00" arrival="156.00">
        <route edges="edgeU-1-1 edgeL-2-0"/>
    </vehicle>

    <vehicle id="flow10.6" depart="120.00" arrival="158.00">
        <route edges="edgeL-2-1 edgeU-2-1"/>
    </vehicle>

    <vehicle id="flow0.6" depart="120.00" arrival="159.00">
        <route edges="edgeD-2-1 edgeL-2-0"/>
    </vehicle>

    <vehicle id="flow9.5" depart="109.00" arrival="162.00">
        <route edges="edgeU-1-1 edgeL-2-0"/>
    </vehicle>

    <vehicle id="flow8.6" depart="126.00" arrival="164.00">
        <route edges="edgeU-1-1 edgeU-2-1"/>
    </vehicle>

    <vehicle id="flow12.5" depart="106.00" arrival="164.00">
        <route edges="edgeL-2-1 edgeD-1-1"/>
    </vehicle>

    <vehicle id="flow6.6" depart="120.00" arrival="165.00">
        <route edges="edgeU-1-1 edgeL-2-0"/>
    </vehicle>

    <vehicle id="flow1.6" depart="123.00" arrival="166.00">
        <route edges="edgeD-2-1 edgeR-2-1"/>
    </vehicle>

    <vehicle id="flow3.6" depart="120.00" arrival="169.00">
        <route edges="edgeR-2-0 edgeU-2-1"/>
    </vehicle>

    <vehicle id="flow7.6" depart="123.00" arrival="169.00">
        <route edges="edgeU-1-1 edgeR-2-1"/>
    </vehicle>

    <vehicle id="flow11.6" depart="123.00" arrival="170.00">
        <route edges="edgeL-2-1 edgeL-2-0"/>
    </vehicle>

    <vehicle id="flow4.6" depart="123.00" arrival="174.00">
        <route edges="edgeR-2-0 edgeR-2-1"/>
    </vehicle>

    <vehicle id="flow5.6" depart="126.00" arrival="176.00">
        <route edges="edgeR-2-0 edgeD-1-1"/>
    </vehicle>

    <vehicle id="flow10.7" depart="140.00" arrival="178.00">
        <route edges="edgeL-2-1 edgeU-2-1"/>
    </vehicle>

    <vehicle id="flow12.6" depart="126.00" arrival="179.00">
        <route edges="edgeL-2-1 edgeD-1-1"/>
    </vehicle>

    <vehicle id="flow2.6" depart="126.00" arrival="179.00">
        <route edges="edgeD-2-1 edgeD-1-1"/>
    </vehicle>

    <vehicle id="flow0.7" depart="140.00" arrival="181.00">
        <route edges="edgeD-2-1 edgeL-2-0"/>
    </vehicle>

    <vehicle id="flow1.7" depart="143.00" arrival="182.00">
        <route edges="edgeD-2-1 edgeR-2-1"/>
    </vehicle>

    <vehicle id="flow9.6" depart="129.00" arrival="184.00">
        <route edges="edgeU-1-1 edgeL-2-0"/>
    </vehicle>

    <vehicle id="flow3.7" depart="140.00" arrival="187.00">
        <route edges="edgeR-2-0 edgeU-2-1"/>
    </vehicle>

    <vehicle id="flow7.7" depart="143.00" arrival="187.00">
        <route edges="edgeU-1-1 edgeR-2-1"/>
    </vehicle>

    <vehicle id="flow6.7" depart="140.00" arrival="187.00">
        <route edges="edgeU-1-1 edgeL-2-0"/>
    </vehicle>

    <vehicle id="flow8.7" depart="146.00" arrival="188.00">
        <route edges="edgeU-1-1 edgeU-2-1"/>
    </vehicle>

    <vehicle id="flow11.7" depart="143.00" arrival="189.00">
        <route edges="edgeL-2-1 edgeL-2-0"/>
    </vehicle>

    <vehicle id="flow4.7" depart="143.00" arrival="190.00">
        <route edges="edgeR-2-0 edgeR-2-1"/>
    </vehicle>

    <vehicle id="flow5.7" depart="146.00" arrival="192.00">
        <route edges="edgeR-2-0 edgeD-1-1"/>
    </vehicle>

    <vehicle id="flow10.8" depart="160.00" arrival="197.00">
        <route edges="edgeL-2-1 edgeU-2-1"/>
    </vehicle>

    <vehicle id="flow2.7" depart="146.00" arrival="197.00">
        <route edges="edgeD-2-1 edgeD-1-1"/>
    </vehicle>

    <vehicle id="flow9.7" depart="149.00" arrival="198.00">
        <route edges="edgeU-1-1 edgeL-2-0"/>
    </vehicle>

    <vehicle id="flow0.8" depart="160.00" arrival="199.00">
        <route edges="edgeD-2-1 edgeL-2-0"/>
    </vehicle>

    <vehicle id="flow1.8" depart="163.00" arrival="202.00">
        <route edges="edgeD-2-1 edgeR-2-1"/>
    </vehicle>

    <vehicle id="flow12.7" depart="146.00" arrival="205.00">
        <route edges="edgeL-2-1 edgeD-1-1"/>
    </vehicle>

    <vehicle id="flow3.8" depart="160.00" arrival="206.00">
        <route edges="edgeR-2-0 edgeU-2-1"/>
    </vehicle>

    <vehicle id="flow6.8" depart="160.00" arrival="206.00">
        <route edges="edgeU-1-1 edgeL-2-0"/>
    </vehicle>

    <vehicle id="flow7.8" depart="163.00" arrival="207.00">
        <route edges="edgeU-1-1 edgeR-2-1"/>
    </vehicle>

    <vehicle id="flow11.8" depart="163.00" arrival="209.00">
        <route edges="edgeL-2-1 edgeL-2-0"/>
    </vehicle>

    <vehicle id="flow4.8" depart="163.00" arrival="211.00">
        <route edges="edgeR-2-0 edgeR-2-1"/>
    </vehicle>

    <vehicle id="flow5.8" depart="166.00" arrival="213.00">
        <route edges="edgeR-2-0 edgeD-1-1"/>
    </vehicle>

    <vehicle id="flow8.8" depart="166.00" arrival="214.00">
        <route edges="edgeU-1-1 edgeU-2-1"/>
    </vehicle>

    <vehicle id="flow12.8" depart="166.00" arrival="217.00">
        <route edges="edgeL-2-1 edgeD-1-1"/>
    </vehicle>

    <vehicle id="flow2.8" depart="166.00" arrival="217.00">
        <route edges="edgeD-2-1 edgeD-1-1"/>
    </vehicle>

    <vehicle id="flow10.9" depart="180.00" arrival="218.00">
        <route edges="edgeL-2-1 edgeU-2-1"/>
    </vehicle>

    <vehicle id="flow0.9" depart="180.00" arrival="219.00">
        <route edges="edgeD-2-1 edgeL-2-0"/>
    </vehicle>

    <vehicle id="flow1.9" depart="183.00" arrival="221.00">
        <route edges="edgeD-2-1 edgeR-2-1"/>
    </vehicle>

    <vehicle id="flow9.8" depart="169.00" arrival="223.00">
        <route edges="edgeU-1-1 edgeL-2-0"/>
    </vehicle>

    <vehicle id="flow3.9" depart="180.00" arrival="226.00">
        <route edges="edgeR-2-0 edgeU-2-1"/>
    </vehicle>

    <vehicle id="flow7.9" depart="183.00" arrival="228.00">
        <route edges="edgeU-1-1 edgeR-2-1"/>
    </vehicle>

    <vehicle id="flow11.9" depart="183.00" arrival="228.00">
        <route edges="edgeL-2-1 edgeL-2-0"/>
    </vehicle>

    <vehicle id="flow8.9" depart="186.00" arrival="230.00">
        <route edges="edgeU-1-1 edgeU-2-1"/>
    </vehicle>

    <vehicle id="flow4.9" depart="183.00" arrival="232.00">
        <route edges="edgeR-2-0 edgeR-2-1"/>
    </vehicle>

    <vehicle id="flow5.9" depart="186.00" arrival="234.00">
        <route edges="edgeR-2-0 edgeD-1-1"/>
    </vehicle>

    <vehicle id="flow6.9" depart="180.00" arrival="237.00">
        <route edges="edgeU-1-1 edgeL-2-0"/>
    </vehicle>

    <vehicle id="flow10.10" depart="200.00" arrival="239.00">
        <route edges="edgeL-2-1 edgeU-2-1"/>
    </vehicle>

    <vehicle id="flow0.10" depart="200.00" arrival="239.00">
        <route edges="edgeD-2-1 edgeL-2-0"/>
    </vehicle>

    <vehicle id="flow2.9" depart="186.00" arrival="240.00">
        <route edges="edgeD-2-1 edgeD-1-1"/>
    </vehicle>

    <vehicle id="flow3.10" depart="200.00" arrival="242.00">
        <route edges="edgeR-2-0 edgeU-2-1"/>
    </vehicle>

    <vehicle id="flow12.9" depart="186.00" arrival="242.00">
        <route edges="edgeL-2-1 edgeD-1-1"/>
    </vehicle>

    <vehicle id="flow1.10" depart="203.00" arrival="243.00">
        <route edges="edgeD-2-1 edgeR-2-1"/>
    </vehicle>

    <vehicle id="flow9.9" depart="189.00" arrival="245.00">
        <route edges="edgeU-1-1 edgeL-2-0"/>
    </vehicle>

    <vehicle id="flow7.10" depart="203.00" arrival="248.00">
        <route edges="edgeU-1-1 edgeR-2-1"/>
    </vehicle>

    <vehicle id="flow8.10" depart="206.00" arrival="249.00">
        <route edges="edgeU-1-1 edgeU-2-1"/>
    </vehicle>

    <vehicle id="flow4.10" depart="203.00" arrival="250.00">
        <route edges="edgeR-2-0 edgeR-2-1"/>
    </vehicle>

    <vehicle id="flow11.10" depart="203.00" arrival="251.00">
        <route edges="edgeL-2-1 edgeL-2-0"/>
    </vehicle>

    <vehicle id="flow5.10" depart="206.00" arrival="252.00">
        <route edges="edgeR-2-0 edgeD-1-1"/>
    </vehicle>

    <vehicle id="flow2.10" depart="206.00" arrival="255.00">
        <route edges="edgeD-2-1 edgeD-1-1"/>
    </vehicle>

    <vehicle id="flow0.11" depart="220.00" arrival="257.00">
        <route edges="edgeD-2-1 edgeL-2-0"/>
    </vehicle>

    <vehicle id="flow10.11" depart="220.00" arrival="258.00">
        <route edges="edgeL-2-1 edgeU-2-1"/>
    </vehicle>

    <vehicle id="flow12.10" depart="206.00" arrival="259.00">
        <route edges="edgeL-2-1 edgeD-1-1"/>
    </vehicle>

    <vehicle id="flow6.10" depart="200.00" arrival="262.00">
        <route edges="edgeU-1-1 edgeL-2-0"/>
    </vehicle>

    <vehicle id="flow1.11" depart="223.00" arrival="263.00">
        <route edges="edgeD-2-1 edgeR-2-1"/>
    </vehicle>

    <vehicle id="flow9.10" depart="209.00" arrival="264.00">
        <route edges="edgeU-1-1 edgeL-2-0"/>
    </vehicle>

    <vehicle id="flow3.11" depart="220.00" arrival="267.00">
        <route edges="edgeR-2-0 edgeU-2-1"/>
    </vehicle>

    <vehicle id="flow7.11" depart="223.00" arrival="269.00">
        <route edges="edgeU-1-1 edgeR-2-1"/>
    </vehicle>

    <vehicle id="flow11.11" depart="223.00" arrival="270.00">
        <route edges="edgeL-2-1 edgeL-2-0"/>
    </vehicle>

    <vehicle id="flow8.11" depart="226.00" arrival="275.00">
        <route edges="edgeU-1-1 edgeU-2-1"/>
    </vehicle>

    <vehicle id="flow4.11" depart="223.00" arrival="275.00">
        <route edges="edgeR-2-0 edgeR-2-1"/>
    </vehicle>

    <vehicle id="flow5.11" depart="226.00" arrival="275.00">
        <route edges="edgeR-2-0 edgeD-1-1"/>
    </vehicle>

    <vehicle id="flow12.11" depart="226.00" arrival="278.00">
        <route edges="edgeL-2-1 edgeD-1-1"/>
    </vehicle>

    <vehicle id="flow10.12" depart="240.00" arrival="279.00">
        <route edges="edgeL-2-1 edgeU-2-1"/>
    </vehicle>

    <vehicle id="flow2.11" depart="226.00" arrival="280.00">
        <route edges="edgeD-2-1 edgeD-1-1"/>
    </vehicle>

    <vehicle id="flow0.12" depart="240.00" arrival="280.00">
        <route edges="edgeD-2-1 edgeL-2-0"/>
    </vehicle>

    <vehicle id="flow1.12" depart="243.00" arrival="282.00">
        <route edges="edgeD-2-1 edgeR-2-1"/>
    </vehicle>

    <vehicle id="flow6.11" depart="220.00" arrival="284.00">
        <route edges="edgeU-1-1 edgeL-2-0"/>
    </vehicle>

    <vehicle id="flow3.12" depart="240.00" arrival="286.00">
        <route edges="edgeR-2-0 edgeU-2-1"/>
    </vehicle>

    <vehicle id="flow7.12" depart="243.00" arrival="288.00">
        <route edges="edgeU-1-1 edgeR-2-1"/>
    </vehicle>

    <vehicle id="flow11.12" depart="243.00" arrival="288.00">
        <route edges="edgeL-2-1 edgeL-2-0"/>
    </vehicle>

    <vehicle id="flow4.12" depart="243.00" arrival="289.00">
        <route edges="edgeR-2-0 edgeR-2-1"/>
    </vehicle>

    <vehicle id="flow5.12" depart="246.00" arrival="292.00">
        <route edges="edgeR-2-0 edgeD-1-1"/>
    </vehicle>

    <vehicle id="flow8.12" depart="246.00" arrival="293.00">
        <route edges="edgeU-1-1 edgeU-2-1"/>
    </vehicle>

    <vehicle id="flow2.12" depart="246.00" arrival="295.00">
        <route edges="edgeD-2-1 edgeD-1-1"/>
    </vehicle>

    <vehicle id="flow12.12" depart="246.00" arrival="297.00">
        <route edges="edgeL-2-1 edgeD-1-1"/>
    </vehicle>

    <vehicle id="flow10.13" depart="260.00" arrival="298.00">
        <route edges="edgeL-2-1 edgeU-2-1"/>
    </vehicle>

    <vehicle id="flow0.13" depart="260.00" arrival="299.00">
        <route edges="edgeD-2-1 edgeL-2-0"/>
    </vehicle>

    <vehicle id="flow1.13" depart="263.00" arrival="303.00">
        <route edges="edgeD-2-1 edgeR-2-1"/>
    </vehicle>

    <vehicle id="flow9.11" depart="229.00" arrival="303.00">
        <route edges="edgeU-1-1 edgeL-2-0"/>
    </vehicle>

    <vehicle id="flow6.12" depart="240.00" arrival="305.00">
        <route edges="edgeU-1-1 edgeL-2-0"/>
    </vehicle>

    <vehicle id="flow3.13" depart="260.00" arrival="306.00">
        <route edges="edgeR-2-0 edgeU-2-1"/>
    </vehicle>

    <vehicle id="flow2.13" depart="266.00" arrival="308.00">
        <route edges="edgeD-2-1 edgeD-1-1"/>
    </vehicle>

    <vehicle id="flow8.13" depart="266.00" arrival="309.00">
        <route edges="edgeU-1-1 edgeU-2-1"/>
    </vehicle>

    <vehicle id="flow7.13" depart="263.00" arrival="309.00">
        <route edges="edgeU-1-1 edgeR-2-1"/>
    </vehicle>

    <vehicle id="flow11.13" depart="263.00" arrival="309.00">
        <route edges="edgeL-2-1 edgeL-2-0"/>
    </vehicle>

    <vehicle id="flow4.13" depart="263.00" arrival="312.00">
        <route edges="edgeR-2-0 edgeR-2-1"/>
    </vehicle>

    <vehicle id="flow5.13" depart="266.00" arrival="314.00">
        <route edges="edgeR-2-0 edgeD-1-1"/>
    </vehicle>

    <vehicle id="flow9.12" depart="249.00" arrival="317.00">
        <route edges="edgeU-1-1 edgeL-2-0"/>
    </vehicle>

    <vehicle id="flow10.14" depart="280.00" arrival="318.00">
        <route edges="edgeL-2-1 edgeU-2-1"/>
    </vehicle>

    <vehicle id="flow0.14" depart="280.00" arrival="319.00">
        <route edges="edgeD-2-1 edgeL-2-0"/>
    </vehicle>

    <vehicle id="flow12.13" depart="266.00" arrival="322.00">
        <route edges="edgeL-2-1 edgeD-1-1"/>
    </vehicle>

    <vehicle id="flow1.14" depart="283.00" arrival="326.00">
        <route edges="edgeD-2-1 edgeR-2-1"/>
    </vehicle>

    <vehicle id="flow6.13" depart="260.00" arrival="326.00">
        <route edges="edgeU-1-1 edgeL-2-0"/>
    </vehicle>

    <vehicle id="flow3.14" depart="280.00" arrival="327.00">
        <route edges="edgeR-2-0 edgeU-2-1"/>
    </vehicle>

    <vehicle id="flow7.14" depart="283.00" arrival="328.00">
        <route edges="edgeU-1-1 edgeR-2-1"/>
    </vehicle>

    <vehicle id="flow11.14" depart="283.00" arrival="330.00">
        <route edges="edgeL-2-1 edgeL-2-0"/>
    </vehicle>

    <vehicle id="flow4.14" depart="283.00" arrival="332.00">
        <route edges="edgeR-2-0 edgeR-2-1"/>
    </vehicle>

    <vehicle id="flow5.14" depart="286.00" arrival="333.00">
        <route edges="edgeR-2-0 edgeD-1-1"/>
    </vehicle>

    <vehicle id="flow8.14" depart="286.00" arrival="334.00">
        <route edges="edgeU-1-1 edgeU-2-1"/>
    </vehicle>

    <vehicle id="flow2.14" depart="286.00" arrival="336.00">
        <route edges="edgeD-2-1 edgeD-1-1"/>
    </vehicle>

    <vehicle id="flow0.15" depart="300.00" arrival="337.00">
        <route edges="edgeD-2-1 edgeL-2-0"/>
    </vehicle>

    <vehicle id="flow10.15" depart="300.00" arrival="338.00">
        <route edges="edgeL-2-1 edgeU-2-1"/>
    </vehicle>

    <vehicle id="flow12.14" depart="286.00" arrival="338.00">
        <route edges="edgeL-2-1 edgeD-1-1"/>
    </vehicle>

    <vehicle id="flow9.13" depart="269.00" arrival="342.00">
        <route edges="edgeU-1-1 edgeL-2-0"/>
    </vehicle>

    <vehicle id="flow1.15" depart="303.00" arrival="343.00">
        <route edges="edgeD-2-1 edgeR-2-1"/>
    </vehicle>

    <vehicle id="flow6.14" depart="280.00" arrival="344.00">
        <route edges="edgeU-1-1 edgeL-2-0"/>
    </vehicle>

    <vehicle id="flow3.15" depart="300.00" arrival="345.00">
        <route edges="edgeR-2-0 edgeU-2-1"/>
    </vehicle>

    <vehicle id="flow7.15" depart="303.00" arrival="348.00">
        <route edges="edgeU-1-1 edgeR-2-1"/>
    </vehicle>

    <vehicle id="flow11.15" depart="303.00" arrival="348.00">
        <route edges="edgeL-2-1 edgeL-2-0"/>
    </vehicle>

    <vehicle id="flow8.15" depart="306.00" arrival="350.00">
        <route edges="edgeU-1-1 edgeU-2-1"/>
    </vehicle>

    <vehicle id="flow4.15" depart="303.00" arrival="352.00">
        <route edges="edgeR-2-0 edgeR-2-1"/>
    </vehicle>

    <vehicle id="flow5.15" depart="306.00" arrival="353.00">
        <route edges="edgeR-2-0 edgeD-1-1"/>
    </vehicle>

    <vehicle id="flow2.15" depart="306.00" arrival="357.00">
        <route edges="edgeD-2-1 edgeD-1-1"/>
    </vehicle>

    <vehicle id="flow0.16" depart="320.00" arrival="358.00">
        <route edges="edgeD-2-1 edgeL-2-0"/>
    </vehicle>

    <vehicle id="flow10.16" depart="320.00" arrival="359.00">
        <route edges="edgeL-2-1 edgeU-2-1"/>
    </vehicle>

    <vehicle id="flow12.15" depart="306.00" arrival="362.00">
        <route edges="edgeL-2-1 edgeD-1-1"/>
    </vehicle>

    <vehicle id="flow1.16" depart="323.00" arrival="364.00">
        <route edges="edgeD-2-1 edgeR-2-1"/>
    </vehicle>

    <vehicle id="flow9.14" depart="289.00" arrival="366.00">
        <route edges="edgeU-1-1 edgeL-2-0"/>
    </vehicle>

    <vehicle id="flow3.16" depart="320.00" arrival="368.00">
        <route edges="edgeR-2-0 edgeU-2-1"/>
    </vehicle>

    <vehicle id="flow7.16" depart="323.00" arrival="369.00">
        <route edges="edgeU-1-1 edgeR-2-1"/>
    </vehicle>

    <vehicle id="flow2.16" depart="326.00" arrival="370.00">
        <route edges="edgeD-2-1 edgeD-1-1"/>
    </vehicle>

    <vehicle id="flow11.16" depart="323.00" arrival="371.00">
        <route edges="edgeL-2-1 edgeL-2-0"/>
    </vehicle>

    <vehicle id="flow4.16" depart="323.00" arrival="375.00">
        <route edges="edgeR-2-0 edgeR-2-1"/>
    </vehicle>

    <vehicle id="flow8.16" depart="326.00" arrival="376.00">
        <route edges="edgeU-1-1 edgeU-2-1"/>
    </vehicle>

    <vehicle id="flow5.16" depart="326.00" arrival="376.00">
        <route edges="edgeR-2-0 edgeD-1-1"/>
    </vehicle>

    <vehicle id="flow0.17" depart="340.00" arrival="377.00">
        <route edges="edgeD-2-1 edgeL-2-0"/>
    </vehicle>

    <vehicle id="flow10.17" depart="340.00" arrival="378.00">
        <route edges="edgeL-2-1 edgeU-2-1"/>
    </vehicle>

    <vehicle id="flow12.16" depart="326.00" arrival="380.00">
        <route edges="edgeL-2-1 edgeD-1-1"/>
    </vehicle>

    <vehicle id="flow6.15" depart="300.00" arrival="382.00">
        <route edges="edgeU-1-1 edgeL-2-0"/>
    </vehicle>

    <vehicle id="flow1.17" depart="343.00" arrival="383.00">
        <route edges="edgeD-2-1 edgeR-2-1"/>
    </vehicle>

    <vehicle id="flow9.15" depart="309.00" arrival="384.00">
        <route edges="edgeU-1-1 edgeL-2-0"/>
    </vehicle>

    <vehicle id="flow2.17" depart="346.00" arrival="387.00">
        <route edges="edgeD-2-1 edgeD-1-1"/>
    </vehicle>

    <vehicle id="flow3.17" depart="340.00" arrival="388.00">
        <route edges="edgeR-2-0 edgeU-2-1"/>
    </vehicle>

    <vehicle id="flow7.17" depart="343.00" arrival="388.00">
        <route edges="edgeU-1-1 edgeR-2-1"/>
    </vehicle>

    <vehicle id="flow11.17" depart="343.00" arrival="390.00">
        <route edges="edgeL-2-1 edgeL-2-0"/>
    </vehicle>

    <vehicle id="flow8.17" depart="346.00" arrival="395.00">
        <route edges="edgeU-1-1 edgeU-2-1"/>
    </vehicle>

    <vehicle id="flow4.17" depart="343.00" arrival="395.00">
        <route edges="edgeR-2-0 edgeR-2-1"/>
    </vehicle>

    <vehicle id="flow5.17" depart="346.00" arrival="395.00">
        <route edges="edgeR-2-0 edgeD-1-1"/>
    </vehicle>

    <vehicle id="flow12.17" depart="346.00" arrival="398.00">
        <route edges="edgeL-2-1 edgeD-1-1"/>
    </vehicle>

    <vehicle id="flow0.18" depart="360.00" arrival="398.00">
        <route edges="edgeD-2-1 edgeL-2-0"/>
    </vehicle>

    <vehicle id="flow10.18" depart="360.00" arrival="400.00">
        <route edges="edgeL-2-1 edgeU-2-1"/>
    </vehicle>

    <vehicle id="flow6.16" depart="320.00" arrival="401.00">
        <route edges="edgeU-1-1 edgeL-2-0"/>
    </vehicle>

    <vehicle id="flow1.18" depart="363.00" arrival="402.00">
        <route edges="edgeD-2-1 edgeR-2-1"/>
    </vehicle>

    <vehicle id="flow9.16" depart="329.00" arrival="404.00">