<?xml version="1.0" encoding="UTF-8"?>

<!-- generated on Thu 23 Feb 2017 08:32:37 AM PST by SUMO gui Version 0.25.0
<?xml version="1.0" encoding="UTF-8"?>

<configuration xmlns:xsi="http://www.w3.org/2001/XMLSchema-instance" xsi:noNamespaceSchemaLocation="http://sumo.dlr.de/xsd/sumo-gui.exeConfiguration.xsd">

    <input>
        <net-file value="/home/dance-in-dark/SUMO/route1/mySUMONet.net.xml"/>
        <route-files value="/home/dance-in-dark/SUMO/route1/ex_ROU.rou.xml"/>
    </input>

    <output>
        <netstate-dump value="/home/dance-in-dark/SUMO/route1/ex_sumo.sumo.tr"/>
        <emission-output value="/home/dance-in-dark/SUMO/route1/output-emissions.xml"/>
        <tripinfo-output value="/home/dance-in-dark/SUMO/route1/output-tripinfos.xml"/>
        <vehroute-output value="/home/dance-in-dark/SUMO/route1/output-vehroutes.xml"/>
        <save-state.prefix value="/home/dance-in-dark/SUMO/route1/state"/>
    </output>

    <time>
        <begin value="0"/>
        <end value="2000"/>
    </time>

    <processing>
        <route-steps value="-1"/>
        <time-to-teleport value="-1"/>
    </processing>

    <report>
        <print-options value="false"/>
    </report>

    <emissions>
        <phemlight-path value="/home/dance-in-dark/SUMO/route1/./PHEMlight/"/>
    </emissions>

    <random_number>
        <seed value="23423"/>
    </random_number>

</configuration>
-->

<tripinfos xmlns:xsi="http://www.w3.org/2001/XMLSchema-instance" xsi:noNamespaceSchemaLocation="http://sumo.dlr.de/xsd/tripinfo_file.xsd">
    <tripinfo id="flow0.0" depart="0.00" departLane="edgeD-2-1_0" departPos="5.10" departSpeed="0.00" departDelay="0.00" arrival="37.00" arrivalLane="edgeL-2-0_0" arrivalPos="283.90" arrivalSpeed="14.91" duration="37.00" routeLength="467.70" waitSteps="0" timeLoss="5.56" rerouteNo="0" devices="vehroute_flow0.0 tripinfo_flow0.0" vType="DEFAULT_VEHTYPE" vaporized=""/>
    <tripinfo id="flow10.0" depart="0.00" departLane="edgeL-2-1_0" departPos="5.10" departSpeed="0.00" departDelay="0.00" arrival="38.00" arrivalLane="edgeU-2-1_0" arrivalPos="183.90" arrivalSpeed="14.15" duration="38.00" routeLength="467.70" waitSteps="0" timeLoss="6.21" rerouteNo="0" devices="vehroute_flow10.0 tripinfo_flow10.0" vType="DEFAULT_VEHTYPE" vaporized=""/>
    <tripinfo id="flow1.0" depart="3.00" departLane="edgeD-2-1_0" departPos="5.10" departSpeed="0.00" departDelay="3.00" arrival="42.00" arrivalLane="edgeR-2-1_0" arrivalPos="283.90" arrivalSpeed="14.38" duration="39.00" routeLength="462.70" waitSteps="0" timeLoss="6.21" rerouteNo="0" devices="vehroute_flow1.0 tripinfo_flow1.0" vType="DEFAULT_VEHTYPE" vaporized=""/>
    <tripinfo id="flow2.0" depart="6.00" departLane="edgeD-2-1_0" departPos="5.10" departSpeed="0.00" departDelay="6.00" arrival="46.00" arrivalLane="edgeD-1-1_0" arrivalPos="283.90" arrivalSpeed="14.09" duration="40.00" routeLength="478.80" waitSteps="0" timeLoss="7.13" rerouteNo="0" devices="vehroute_flow2.0 tripinfo_flow2.0" vType="DEFAULT_VEHTYPE" vaporized=""/>
    <tripinfo id="flow3.0" depart="0.00" departLane="edgeR-2-0_0" departPos="5.10" departSpeed="0.00" departDelay="0.00" arrival="48.00" arrivalLane="edgeU-2-1_0" arrivalPos="183.90" arrivalSpeed="14.84" duration="48.00" routeLength="462.70" waitSteps="2" timeLoss="15.46" rerouteNo="0" devices="vehroute_flow3.0 tripinfo_flow3.0" vType="DEFAULT_VEHTYPE" vaporized=""/>
    <tripinfo id="flow7.0" depart="3.00" departLane="edgeU-1-1_0" departPos="5.10" departSpeed="0.00" departDelay="3.00" arrival="48.00" arrivalLane="edgeR-2-1_0" arrivalPos="283.90" arrivalSpeed="14.44" duration="45.00" routeLength="567.70" waitSteps="0" timeLoss="6.47" rerouteNo="0" devices="vehroute_flow7.0 tripinfo_flow7.0" vType="DEFAULT_VEHTYPE" vaporized=""/>
    <tripinfo id="flow11.0" depart="3.00" departLane="edgeL-2-1_0" departPos="5.10" departSpeed="0.00" departDelay="3.00" arrival="48.00" arrivalLane="edgeL-2-0_0" arrivalPos="283.90" arrivalSpeed="14.27" duration="45.00" routeLength="578.80" waitSteps="0" timeLoss="6.17" rerouteNo="0" devices="vehroute_flow11.0 tripinfo_flow11.0" vType="DEFAULT_VEHTYPE" vaporized=""/>
    <tripinfo id="flow6.0" depart="0.00" departLane="edgeU-1-1_0" departPos="5.10" departSpeed="0.00" departDelay="0.00" arrival="52.00" arrivalLane="edgeL-2-0_0" arrivalPos="283.90" arrivalSpeed="14.73" duration="52.00" routeLength="562.70" waitSteps="1" timeLoss="12.91" rerouteNo="0" devices="vehroute_flow6.0 tripinfo_flow6.0" vType="DEFAULT_VEHTYPE" vaporized=""/>
    <tripinfo id="flow4.0" depart="3.00" departLane="edgeR-2-0_0" departPos="5.10" departSpeed="0.00" departDelay="3.00" arrival="54.00" arrivalLane="edgeR-2-1_0" arrivalPos="283.90" arrivalSpeed="14.33" duration="51.00" routeLength="578.80" waitSteps="2" timeLoss="11.95" rerouteNo="0" devices="vehroute_flow4.0 tripinfo_flow4.0" vType="DEFAULT_VEHTYPE" vaporized=""/>
    <tripinfo id="flow8.0" depart="6.00" departLane="edgeU-1-1_0" departPos="5.10" departSpeed="0.00" departDelay="6.00" arrival="55.00" arrivalLane="edgeU-2-1_0" arrivalPos="183.90" arrivalSpeed="14.31" duration="49.00" routeLength="478.80" waitSteps="6" timeLoss="16.88" rerouteNo="0" devices="vehroute_flow8.0 tripinfo_flow8.0" vType="DEFAULT_VEHTYPE" vaporized=""/>
    <tripinfo id="flow5.0" depart="6.00" departLane="edgeR-2-0_0" departPos="5.10" departSpeed="0.00" departDelay="6.00" arrival="55.00" arrivalLane="edgeD-1-1_0" arrivalPos="283.90" arrivalSpeed="13.91" duration="49.00" routeLength="567.70" waitSteps="0" timeLoss="11.07" rerouteNo="0" devices="vehroute_flow5.0 tripinfo_flow5.0" vType="DEFAULT_VEHTYPE" vaporized=""/>
    <tripinfo id="flow10.1" depart="20.00" departLane="edgeL-2-1_0" departPos="5.10" departSpeed="0.00" departDelay="0.00" arrival="57.00" arrivalLane="edgeU-2-1_0" arrivalPos="183.90" arrivalSpeed="14.01" duration="37.00" routeLength="467.70" waitSteps="0" timeLoss="5.73" rerouteNo="0" devices="vehroute_flow10.1 tripinfo_flow10.1" vType="DEFAULT_VEHTYPE" vaporized=""/>
    <tripinfo id="flow0.1" depart="20.00" departLane="edgeD-2-1_0" departPos="5.10" departSpeed="0.00" departDelay="0.00" arrival="58.00" arrivalLane="edgeL-2-0_0" arrivalPos="283.90" arrivalSpeed="14.42" duration="38.00" routeLength="467.70" waitSteps="0" timeLoss="6.29" rerouteNo="0" devices="vehroute_flow0.1 tripinfo_flow0.1" vType="DEFAULT_VEHTYPE" vaporized=""/>
    <tripinfo id="flow12.0" depart="6.00" departLane="edgeL-2-1_0" departPos="5.10" departSpeed="0.00" departDelay="6.00" arrival="59.00" arrivalLane="edgeD-1-1_0" arrivalPos="283.90" arrivalSpeed="13.71" duration="53.00" routeLength="562.70" waitSteps="4" timeLoss="13.83" rerouteNo="0" devices="vehroute_flow12.0 tripinfo_flow12.0" vType="DEFAULT_VEHTYPE" vaporized=""/>
    <tripinfo id="flow9.0" depart="9.00" departLane="edgeU-1-1_0" departPos="5.10" departSpeed="0.00" departDelay="9.00" arrival="61.00" arrivalLane="edgeL-2-0_0" arrivalPos="283.90" arrivalSpeed="14.11" duration="52.00" routeLength="562.70" waitSteps="2" timeLoss="13.30" rerouteNo="0" devices="vehroute_flow9.0 tripinfo_flow9.0" vType="DEFAULT_VEHTYPE" vaporized=""/>
    <tripinfo id="flow1.1" depart="23.00" departLane="edgeD-2-1_0" departPos="5.10" departSpeed="0.00" departDelay="3.00" arrival="63.00" arrivalLane="edgeR-2-1_0" arrivalPos="283.90" arrivalSpeed="14.74" duration="40.00" routeLength="462.70" waitSteps="0" timeLoss="7.58" rerouteNo="0" devices="vehroute_flow1.1 tripinfo_flow1.1" vType="DEFAULT_VEHTYPE" vaporized=""/>
    <tripinfo id="flow6.1" depart="20.00" departLane="edgeU-1-1_0" departPos="5.10" departSpeed="0.00" departDelay="0.00" arrival="65.00" arrivalLane="edgeL-2-0_0" arrivalPos="283.90" arrivalSpeed="14.18" duration="45.00" routeLength="562.70" waitSteps="0" timeLoss="6.25" rerouteNo="0" devices="vehroute_flow6.1 tripinfo_flow6.1" vType="DEFAULT_VEHTYPE" vaporized=""/>
    <tripinfo id="flow7.1" depart="23.00" departLane="edgeU-1-1_0" departPos="5.10" departSpeed="0.00" departDelay="3.00" arrival="67.00" arrivalLane="edgeR-2-1_0" arrivalPos="283.90" arrivalSpeed="14.83" duration="44.00" routeLength="567.70" waitSteps="0" timeLoss="6.14" rerouteNo="0" devices="vehroute_flow7.1 tripinfo_flow7.1" vType="DEFAULT_VEHTYPE" vaporized=""/>
    <tripinfo id="flow3.1" depart="20.00" departLane="edgeR-2-0_0" departPos="5.10" departSpeed="0.00" departDelay="0.00" arrival="69.00" arrivalLane="edgeU-2-1_0" arrivalPos="183.90" arrivalSpeed="14.51" duration="49.00" routeLength="462.70" waitSteps="4" timeLoss="16.14" rerouteNo="0" devices="vehroute_flow3.1 tripinfo_flow3.1" vType="DEFAULT_VEHTYPE" vaporized=""/>
    <tripinfo id="flow4.1" depart="23.00" departLane="edgeR-2-0_0" departPos="5.10" departSpeed="0.00" departDelay="3.00" arrival="70.00" arrivalLane="edgeR-2-1_0" arrivalPos="283.90" arrivalSpeed="13.83" duration="47.00" routeLength="578.80" waitSteps="0" timeLoss="7.98" rerouteNo="0" devices="vehroute_flow4.1 tripinfo_flow4.1" vType="DEFAULT_VEHTYPE" vaporized=""/>
    <tripinfo id="flow11.1" depart="23.00" departLane="edgeL-2-1_0" departPos="5.10" departSpeed="0.00" departDelay="3.00" arrival="70.00" arrivalLane="edgeL-2-0_0" arrivalPos="283.90" arrivalSpeed="14.01" duration="47.00" routeLength="578.80" waitSteps="0" timeLoss="7.59" rerouteNo="0" devices="vehroute_flow11.1 tripinfo_flow11.1" vType="DEFAULT_VEHTYPE" vaporized=""/>
    <tripinfo id="flow8.1" depart="26.00" departLane="edgeU-1-1_0" departPos="5.10" departSpeed="0.00" departDelay="6.00" arrival="71.00" arrivalLane="edgeU-2-1_0" arrivalPos="183.90" arrivalSpeed="14.59" duration="45.00" routeLength="478.80" waitSteps="1" timeLoss="12.60" rerouteNo="0" devices="vehroute_flow8.1 tripinfo_flow8.1" vType="DEFAULT_VEHTYPE" vaporized=""/>
    <tripinfo id="flow5.1" depart="26.00" departLane="edgeR-2-0_0" departPos="5.10" departSpeed="0.00" departDelay="6.00" arrival="72.00" arrivalLane="edgeD-1-1_0" arrivalPos="283.90" arrivalSpeed="14.24" duration="46.00" routeLength="567.70" waitSteps="0" timeLoss="7.90" rerouteNo="0" devices="vehroute_flow5.1 tripinfo_flow5.1" vType="DEFAULT_VEHTYPE" vaporized=""/>
    <tripinfo id="flow12.1" depart="26.00" departLane="edgeL-2-1_0" departPos="5.10" departSpeed="0.00" departDelay="6.00" arrival="76.00" arrivalLane="edgeD-1-1_0" arrivalPos="283.90" arrivalSpeed="14.38" duration="50.00" routeLength="562.70" waitSteps="0" timeLoss="10.62" rerouteNo="0" devices="vehroute_flow12.1 tripinfo_flow12.1" vType="DEFAULT_VEHTYPE" vaporized=""/>
    <tripinfo id="flow2.1" depart="26.00" departLane="edgeD-2-1_0" departPos="5.10" departSpeed="0.00" departDelay="6.00" arrival="77.00" arrivalLane="edgeD-1-1_1" arrivalPos="283.90" arrivalSpeed="14.11" duration="51.00" routeLength="478.80" waitSteps="7" timeLoss="18.88" rerouteNo="0" devices="vehroute_flow2.1 tripinfo_flow2.1" vType="DEFAULT_VEHTYPE" vaporized=""/>
    <tripinfo id="flow10.2" depart="40.00" departLane="edgeL-2-1_0" departPos="5.10" departSpeed="0.00" departDelay="0.00" arrival="77.00" arrivalLane="edgeU-2-1_0" arrivalPos="183.90" arrivalSpeed="14.25" duration="37.00" routeLength="467.70" waitSteps="0" timeLoss="5.80" rerouteNo="0" devices="vehroute_flow10.2 tripinfo_flow10.2" vType="DEFAULT_VEHTYPE" vaporized=""/>
    <tripinfo id="flow0.2" depart="40.00" departLane="edgeD-2-1_0" departPos="5.10" departSpeed="0.00" departDelay="0.00" arrival="79.00" arrivalLane="edgeL-2-0_0" arrivalPos="283.90" arrivalSpeed="14.34" duration="39.00" routeLength="467.70" waitSteps="0" timeLoss="6.89" rerouteNo="0" devices="vehroute_flow0.2 tripinfo_flow0.2" vType="DEFAULT_VEHTYPE" vaporized=""/>
    <tripinfo id="flow1.2" depart="43.00" departLane="edgeD-2-1_0" departPos="5.10" departSpeed="0.00" departDelay="3.00" arrival="83.00" arrivalLane="edgeR-2-1_0" arrivalPos="283.90" arrivalSpeed="14.43" duration="40.00" routeLength="462.70" waitSteps="0" timeLoss="7.31" rerouteNo="0" devices="vehroute_flow1.2 tripinfo_flow1.2" vType="DEFAULT_VEHTYPE" vaporized=""/>
    <tripinfo id="flow9.1" depart="29.00" departLane="edgeU-1-1_0" departPos="5.10" departSpeed="0.00" departDelay="9.00" arrival="83.00" arrivalLane="edgeL-2-0_0" arrivalPos="283.90" arrivalSpeed="14.07" duration="54.00" routeLength="562.70" waitSteps="3" timeLoss="14.60" rerouteNo="0" devices="vehroute_flow9.1 tripinfo_flow9.1" vType="DEFAULT_VEHTYPE" vaporized=""/>
    <tripinfo id="flow8.2" depart="46.00" departLane="edgeU-1-1_0" departPos="5.10" departSpeed="0.00" departDelay="6.00" arrival="84.00" arrivalLane="edgeU-2-1_0" arrivalPos="183.90" arrivalSpeed="14.11" duration="38.00" routeLength="478.80" waitSteps="0" timeLoss="5.99" rerouteNo="0" devices="vehroute_flow8.2 tripinfo_flow8.2" vType="DEFAULT_VEHTYPE" vaporized=""/>
    <tripinfo id="flow6.2" depart="40.00" departLane="edgeU-1-1_0" departPos="5.10" departSpeed="0.00" departDelay="0.00" arrival="85.00" arrivalLane="edgeL-2-0_0" arrivalPos="283.90" arrivalSpeed="14.92" duration="45.00" routeLength="562.70" waitSteps="0" timeLoss="5.97" rerouteNo="0" devices="vehroute_flow6.2 tripinfo_flow6.2" vType="DEFAULT_VEHTYPE" vaporized=""/>
    <tripinfo id="flow3.2" depart="40.00" departLane="edgeR-2-0_0" departPos="5.10" departSpeed="0.00" departDelay="0.00" arrival="89.00" arrivalLane="edgeU-2-1_0" arrivalPos="183.90" arrivalSpeed="14.42" duration="49.00" routeLength="462.70" waitSteps="7" timeLoss="16.20" rerouteNo="0" devices="vehroute_flow3.2 tripinfo_flow3.2" vType="DEFAULT_VEHTYPE" vaporized=""/>
    <tripinfo id="flow11.2" depart="43.00" departLane="edgeL-2-1_0" departPos="5.10" departSpeed="0.00" departDelay="3.00" arrival="89.00" arrivalLane="edgeL-2-0_0" arrivalPos="283.90" arrivalSpeed="14.11" duration="46.00" routeLength="578.80" waitSteps="0" timeLoss="6.93" rerouteNo="0" devices="vehroute_flow11.2 tripinfo_flow11.2" vType="DEFAULT_VEHTYPE" vaporized=""/>
    <tripinfo id="flow7.2" depart="43.00" departLane="edgeU-1-1_0" departPos="5.10" departSpeed="0.00" departDelay="3.00" arrival="90.00" arrivalLane="edgeR-2-1_0" arrivalPos="283.90" arrivalSpeed="14.98" duration="47.00" routeLength="567.70" waitSteps="0" timeLoss="8.18" rerouteNo="0" devices="vehroute_flow7.2 tripinfo_flow7.2" vType="DEFAULT_VEHTYPE" vaporized=""/>
    <tripinfo id="flow4.2" depart="43.00" departLane="edgeR-2-0_0" departPos="5.10" departSpeed="0.00" departDelay="3.00" arrival="95.00" arrivalLane="edgeR-2-1_0" arrivalPos="283.90" arrivalSpeed="14.01" duration="52.00" routeLength="578.80" waitSteps="3" timeLoss="13.18" rerouteNo="0" devices="vehroute_flow4.2 tripinfo_flow4.2" vType="DEFAULT_VEHTYPE" vaporized=""/>
    <tripinfo id="flow5.2" depart="46.00" departLane="edgeR-2-0_0" departPos="5.10" departSpeed="0.00" departDelay="6.00" arrival="95.00" arrivalLane="edgeD-1-1_0" arrivalPos="283.90" arrivalSpeed="13.83" duration="49.00" routeLength="567.70" waitSteps="1" timeLoss="10.76" rerouteNo="0" devices="vehroute_flow5.2 tripinfo_flow5.2" vType="DEFAULT_VEHTYPE" vaporized=""/>
    <tripinfo id="flow10.3" depart="60.00" departLane="edgeL-2-1_0" departPos="5.10" departSpeed="0.00" departDelay="0.00" arrival="98.00" arrivalLane="edgeU-2-1_0" arrivalPos="183.90" arrivalSpeed="14.57" duration="38.00" routeLength="467.70" waitSteps="0" timeLoss="6.18" rerouteNo="0" devices="vehroute_flow10.3 tripinfo_flow10.3" vType="DEFAULT_VEHTYPE" vaporized=""/>
    <tripinfo id="flow2.2" depart="46.00" departLane="edgeD-2-1_0" departPos="5.10" departSpeed="0.00" departDelay="6.00" arrival="100.00" arrivalLane="edgeD-1-1_0" arrivalPos="283.90" arrivalSpeed="14.65" duration="54.00" routeLength="478.80" waitSteps="11" timeLoss="21.36" rerouteNo="0" devices="vehroute_flow2.2 tripinfo_flow2.2" vType="DEFAULT_VEHTYPE" vaporized=""/>
    <tripinfo id="flow0.3" depart="60.00" departLane="edgeD-2-1_0" departPos="5.10" departSpeed="0.00" departDelay="0.00" arrival="101.00" arrivalLane="edgeL-2-0_0" arrivalPos="283.90" arrivalSpeed="13.84" duration="41.00" routeLength="467.70" waitSteps="0" timeLoss="9.13" rerouteNo="0" devices="vehroute_flow0.3 tripinfo_flow0.3" vType="DEFAULT_VEHTYPE" vaporized=""/>
    <tripinfo id="flow12.2" depart="46.00" departLane="edgeL-2-1_0" departPos="5.10" departSpeed="0.00" departDelay="6.00" arrival="102.00" arrivalLane="edgeD-1-1_0" arrivalPos="283.90" arrivalSpeed="14.13" duration="56.00" routeLength="562.70" waitSteps="4" timeLoss="16.75" rerouteNo="0" devices="vehroute_flow12.2 tripinfo_flow12.2" vType="DEFAULT_VEHTYPE" vaporized=""/>
    <tripinfo id="flow1.3" depart="63.00" departLane="edgeD-2-1_0" departPos="5.10" departSpeed="0.00" departDelay="3.00" arrival="104.00" arrivalLane="edgeR-2-1_0" arrivalPos="283.90" arrivalSpeed="14.37" duration="41.00" routeLength="462.70" waitSteps="0" timeLoss="8.15" rerouteNo="0" devices="vehroute_flow1.3 tripinfo_flow1.3" vType="DEFAULT_VEHTYPE" vaporized=""/>
    <tripinfo id="flow9.2" depart="49.00" departLane="edgeU-1-1_0" departPos="5.10" departSpeed="0.00" departDelay="9.00" arrival="105.00" arrivalLane="edgeL-2-0_0" arrivalPos="283.90" arrivalSpeed="14.57" duration="56.00" routeLength="562.70" waitSteps="6" timeLoss="17.23" rerouteNo="0" devices="vehroute_flow9.2 tripinfo_flow9.2" vType="DEFAULT_VEHTYPE" vaporized=""/>
    <tripinfo id="flow3.3" depart="60.00" departLane="edgeR-2-0_0" departPos="5.10" departSpeed="0.00" departDelay="0.00" arrival="106.00" arrivalLane="edgeU-2-1_0" arrivalPos="183.90" arrivalSpeed="13.77" duration="46.00" routeLength="462.70" waitSteps="3" timeLoss="13.25" rerouteNo="0" devices="vehroute_flow3.3 tripinfo_flow3.3" vType="DEFAULT_VEHTYPE" vaporized=""/>
    <tripinfo id="flow7.3" depart="63.00" departLane="edgeU-1-1_0" departPos="5.10" departSpeed="0.00" departDelay="3.00" arrival="108.00" arrivalLane="edgeR-2-1_0" arrivalPos="283.90" arrivalSpeed="13.84" duration="45.00" routeLength="567.70" waitSteps="0" timeLoss="7.11" rerouteNo="0" devices="vehroute_flow7.3 tripinfo_flow7.3" vType="DEFAULT_VEHTYPE" vaporized=""/>
    <tripinfo id="flow11.3" depart="63.00" departLane="edgeL-2-1_0" departPos="5.10" departSpeed="0.00" departDelay="3.00" arrival="108.00" arrivalLane="edgeL-2-0_0" arrivalPos="283.90" arrivalSpeed="14.00" duration="45.00" routeLength="578.80" waitSteps="0" timeLoss="6.04" rerouteNo="0" devices="vehroute_flow11.3 tripinfo_flow11.3" vType="DEFAULT_VEHTYPE" vaporized=""/>
    <tripinfo id="flow2.3" depart="66.00" departLane="edgeD-2-1_0" departPos="5.10" departSpeed="0.00" departDelay="6.00" arrival="109.00" arrivalLane="edgeD-1-1_0" arrivalPos="283.90" arrivalSpeed="14.73" duration="43.00" routeLength="478.80" waitSteps="0" timeLoss="10.22" rerouteNo="0" devices="vehroute_flow2.3 tripinfo_flow2.3" vType="DEFAULT_VEHTYPE" vaporized=""/>
    <tripinfo id="flow8.3" depart="66.00" departLane="edgeU-1-1_0" departPos="5.10" departSpeed="0.00" departDelay="6.00" arrival="112.00" arrivalLane="edgeU-2-1_0" arrivalPos="183.90" arrivalSpeed="14.39" duration="46.00" routeLength="478.80" waitSteps="1" timeLoss="13.15" rerouteNo="0" devices="vehroute_flow8.3 tripinfo_flow8.3" vType="DEFAULT_VEHTYPE" vaporized=""/>
    <tripinfo id="flow4.3" depart="63.00" departLane="edgeR-2-0_0" departPos="5.10" departSpeed="0.00" departDelay="3.00" arrival="114.00" arrivalLane="edgeR-2-1_0" arrivalPos="283.90" arrivalSpeed="14.81" duration="51.00" routeLength="578.80" waitSteps="3" timeLoss="12.10" rerouteNo="0" devices="vehroute_flow4.3 tripinfo_flow4.3" vType="DEFAULT_VEHTYPE" vaporized=""/>
    <tripinfo id="flow5.3" depart="66.00" departLane="edgeR-2-0_0" departPos="5.10" departSpeed="0.00" departDelay="6.00" arrival="116.00" arrivalLane="edgeD-1-1_0" arrivalPos="283.90" arrivalSpeed="13.96" duration="50.00" routeLength="567.70" waitSteps="0" timeLoss="11.60" rerouteNo="0" devices="vehroute_flow5.3 tripinfo_flow5.3" vType="DEFAULT_VEHTYPE" vaporized=""/>
    <tripinfo id="flow10.4" depart="80.00" departLane="edgeL-2-1_0" departPos="5.10" departSpeed="0.00" departDelay="0.00" arrival="117.00" arrivalLane="edgeU-2-1_0" arrivalPos="183.90" arrivalSpeed="13.75" duration="37.00" routeLength="467.70" waitSteps="0" timeLoss="5.65" rerouteNo="0" devices="vehroute_flow10.4 tripinfo_flow10.4" vType="DEFAULT_VEHTYPE" vaporized=""/>
    <tripinfo id="flow0.4" depart="80.00" departLane="edgeD-2-1_0" departPos="5.10" departSpeed="0.00" departDelay="0.00" arrival="117.00" arrivalLane="edgeL-2-0_0" arrivalPos="283.90" arrivalSpeed="14.32" duration="37.00" routeLength="467.70" waitSteps="0" timeLoss="5.74" rerouteNo="0" devices="vehroute_flow0.4 tripinfo_flow0.4" vType="DEFAULT_VEHTYPE" vaporized=""/>
    <tripinfo id="flow1.4" depart="83.00" departLane="edgeD-2-1_0" departPos="5.10" departSpeed="0.00" departDelay="3.00" arrival="121.00" arrivalLane="edgeR-2-1_0" arrivalPos="283.90" arrivalSpeed="13.88" duration="38.00" routeLength="462.70" waitSteps="0" timeLoss="5.84" rerouteNo="0" devices="vehroute_flow1.4 tripinfo_flow1.4" vType="DEFAULT_VEHTYPE" vaporized=""/>
    <tripinfo id="flow6.3" depart="60.00" departLane="edgeU-1-1_0" departPos="5.10" departSpeed="0.00" departDelay="0.00" arrival="121.00" arrivalLane="edgeL-2-0_0" arrivalPos="283.90" arrivalSpeed="14.89" duration="61.00" routeLength="562.70" waitSteps="11" timeLoss="22.30" rerouteNo="0" devices="vehroute_flow6.3 tripinfo_flow6.3" vType="DEFAULT_VEHTYPE" vaporized=""/>
    <tripinfo id="flow9.3" depart="69.00" departLane="edgeU-1-1_0" departPos="5.10" departSpeed="0.00" departDelay="9.00" arrival="123.00" arrivalLane="edgeL-2-0_0" arrivalPos="283.90" arrivalSpeed="14.12" duration="54.00" routeLength="562.70" waitSteps="3" timeLoss="15.32" rerouteNo="0" devices="vehroute_flow9.3 tripinfo_flow9.3" vType="DEFAULT_VEHTYPE" vaporized=""/>
    <tripinfo id="flow3.4" depart="80.00" departLane="edgeR-2-0_0" departPos="5.10" departSpeed="0.00" departDelay="0.00" arrival="127.00" arrivalLane="edgeU-2-1_1" arrivalPos="183.90" arrivalSpeed="14.44" duration="47.00" routeLength="462.70" waitSteps="5" timeLoss="15.08" rerouteNo="0" devices="vehroute_flow3.4 tripinfo_flow3.4" vType="DEFAULT_VEHTYPE" vaporized=""/>
    <tripinfo id="flow12.3" depart="66.00" departLane="edgeL-2-1_0" departPos="5.10" departSpeed="0.00" departDelay="6.00" arrival="127.00" arrivalLane="edgeD-1-1_0" arrivalPos="283.90" arrivalSpeed="13.90" duration="61.00" routeLength="562.70" waitSteps="13" timeLoss="22.20" rerouteNo="0" devices="vehroute_flow12.3 tripinfo_flow12.3" vType="DEFAULT_VEHTYPE" vaporized=""/>
    <tripinfo id="flow7.4" depart="83.00" departLane="edgeU-1-1_0" departPos="5.10" departSpeed="0.00" departDelay="3.00" arrival="128.00" arrivalLane="edgeR-2-1_0" arrivalPos="283.90" arrivalSpeed="14.14" duration="45.00" routeLength="567.70" waitSteps="0" timeLoss="6.57" rerouteNo="0" devices="vehroute_flow7.4 tripinfo_flow7.4" vType="DEFAULT_VEHTYPE" vaporized=""/>
    <tripinfo id="flow8.4" depart="86.00" departLane="edgeU-1-1_0" departPos="5.10" departSpeed="0.00" departDelay="6.00" arrival="129.00" arrivalLane="edgeU-2-1_0" arrivalPos="183.90" arrivalSpeed="13.86" duration="43.00" routeLength="478.80" waitSteps="0" timeLoss="10.64" rerouteNo="0" devices="vehroute_flow8.4 tripinfo_flow8.4" vType="DEFAULT_VEHTYPE" vaporized=""/>
    <tripinfo id="flow11.4" depart="83.00" departLane="edgeL-2-1_0" departPos="5.10" departSpeed="0.00" departDelay="3.00" arrival="130.00" arrivalLane="edgeL-2-0_0" arrivalPos="283.90" arrivalSpeed="14.49" duration="47.00" routeLength="578.80" waitSteps="0" timeLoss="7.59" rerouteNo="0" devices="vehroute_flow11.4 tripinfo_flow11.4" vType="DEFAULT_VEHTYPE" vaporized=""/>
    <tripinfo id="flow4.4" depart="82.00" departLane="edgeR-2-0_0" departPos="5.10" departSpeed="0.00" departDelay="2.00" arrival="133.00" arrivalLane="edgeR-2-1_0" arrivalPos="283.90" arrivalSpeed="14.19" duration="51.00" routeLength="578.80" waitSteps="0" timeLoss="11.90" rerouteNo="0" devices="vehroute_flow4.4 tripinfo_flow4.4" vType="DEFAULT_VEHTYPE" vaporized=""/>
    <tripinfo id="flow5.4" depart="86.00" departLane="edgeR-2-0_0" departPos="5.10" departSpeed="0.00" departDelay="6.00" arrival="134.00" arrivalLane="edgeD-1-1_0" arrivalPos="283.90" arrivalSpeed="14.83" duration="48.00" routeLength="567.70" waitSteps="0" timeLoss="9.17" rerouteNo="0" devices="vehroute_flow5.4 tripinfo_flow5.4" vType="DEFAULT_VEHTYPE" vaporized=""/>
    <tripinfo id="flow2.4" depart="86.00" departLane="edgeD-2-1_0" departPos="5.10" departSpeed="0.00" departDelay="6.00" arrival="137.00" arrivalLane="edgeD-1-1_0" arrivalPos="283.90" arrivalSpeed="14.53" duration="51.00" routeLength="478.80" waitSteps="9" timeLoss="18.91" rerouteNo="0" devices="vehroute_flow2.4 tripinfo_flow2.4" vType="DEFAULT_VEHTYPE" vaporized=""/>
    <tripinfo id="flow12.4" depart="86.00" departLane="edgeL-2-1_0" departPos="5.10" departSpeed="0.00" departDelay="6.00" arrival="139.00" arrivalLane="edgeD-1-1_1" arrivalPos="283.90" arrivalSpeed="14.57" duration="53.00" routeLength="562.70" waitSteps="2" timeLoss="14.08" rerouteNo="0" devices="vehroute_flow12.4 tripinfo_flow12.4" vType="DEFAULT_VEHTYPE" vaporized=""/>
    <tripinfo id="flow10.5" depart="100.00" departLane="edgeL-2-1_0" departPos="5.10" departSpeed="0.00" departDelay="0.00" arrival="139.00" arrivalLane="edgeU-2-1_0" arrivalPos="183.90" arrivalSpeed="14.74" duration="39.00" routeLength="467.70" waitSteps="0" timeLoss="7.06" rerouteNo="0" devices="vehroute_flow10.5 tripinfo_flow10.5" vType="DEFAULT_VEHTYPE" vaporized=""/>
    <tripinfo id="flow0.5" depart="100.00" departLane="edgeD-2-1_0" departPos="5.10" departSpeed="0.00" departDelay="0.00" arrival="139.00" arrivalLane="edgeL-2-0_0" arrivalPos="283.90" arrivalSpeed="14.79" duration="39.00" routeLength="467.70" waitSteps="0" timeLoss="6.96" rerouteNo="0" devices="vehroute_flow0.5 tripinfo_flow0.5" vType="DEFAULT_VEHTYPE" vaporized=""/>
    <tripinfo id="flow1.5" depart="103.00" departLane="edgeD-2-1_0" departPos="5.10" departSpeed="0.00" departDelay="3.00" arrival="142.00" arrivalLane="edgeR-2-1_0" arrivalPos="283.90" arrivalSpeed="14.04" duration="39.00" routeLength="462.70" waitSteps="0" timeLoss="6.23" rerouteNo="0" devices="vehroute_flow1.5 tripinfo_flow1.5" vType="DEFAULT_VEHTYPE" vaporized=""/>
    <tripinfo id="flow6.4" depart="80.00" departLane="edgeU-1-1_0" departPos="5.10" departSpeed="0.00" departDelay="0.00" arrival="144.00" arrivalLane="edgeL-2-0_0" arrivalPos="283.90" arrivalSpeed="13.86" duration="64.00" routeLength="562.70" waitSteps="14" timeLoss="24.57" rerouteNo="0" devices="vehroute_flow6.4 tripinfo_flow6.4" vType="DEFAULT_VEHTYPE" vaporized=""/>
    <tripinfo id="flow9.4" depart="89.00" departLane="edgeU-1-1_0" departPos="5.10" departSpeed="0.00" departDelay="9.00" arrival="145.00" arrivalLane="edgeL-2-0_0" arrivalPos="283.90" arrivalSpeed="14.57" duration="56.00" routeLength="562.70" waitSteps="5" timeLoss="17.31" rerouteNo="0" devices="vehroute_flow9.4 tripinfo_flow9.4" vType="DEFAULT_VEHTYPE" vaporized=""/>
    <tripinfo id="flow3.5" depart="100.00" departLane="edgeR-2-0_0" departPos="5.10" departSpeed="0.00" departDelay="0.00" arrival="146.00" arrivalLane="edgeU-2-1_0" arrivalPos="183.90" arrivalSpeed="14.92" duration="46.00" routeLength="462.70" waitSteps="2" timeLoss="13.85" rerouteNo="0" devices="vehroute_flow3.5 tripinfo_flow3.5" vType="DEFAULT_VEHTYPE" vaporized=""/>
    <tripinfo id="flow7.5" depart="103.00" departLane="edgeU-1-1_0" departPos="5.10" departSpeed="0.00" departDelay="3.00" arrival="148.00" arrivalLane="edgeR-2-1_0" arrivalPos="283.90" arrivalSpeed="14.51" duration="45.00" routeLength="567.70" waitSteps="0" timeLoss="6.39" rerouteNo="0" devices="vehroute_flow7.5 tripinfo_flow7.5" vType="DEFAULT_VEHTYPE" vaporized=""/>
    <tripinfo id="flow2.5" depart="106.00" departLane="edgeD-2-1_0" departPos="5.10" departSpeed="0.00" departDelay="6.00" arrival="148.00" arrivalLane="edgeD-1-1_0" arrivalPos="283.90" arrivalSpeed="14.46" duration="42.00" routeLength="478.80" waitSteps="0" timeLoss="9.94" rerouteNo="0" devices="vehroute_flow2.5 tripinfo_flow2.5" vType="DEFAULT_VEHTYPE" vaporized=""/>
    <tripinfo id="flow11.5" depart="103.00" departLane="edgeL-2-1_0" departPos="5.10" departSpeed="0.00" departDelay="3.00" arrival="148.00" arrivalLane="edgeL-2-0_0" arrivalPos="283.90" arrivalSpeed="14.28" duration="45.00" routeLength="578.80" waitSteps="0" timeLoss="6.00" rerouteNo="0" devices="vehroute_flow11.5 tripinfo_flow11.5" vType="DEFAULT_VEHTYPE" vaporized=""/>
    <tripinfo id="flow8.5" depart="106.00" departLane="edgeU-1-1_0" departPos="5.10" departSpeed="0.00" departDelay="6.00" arrival="150.00" arrivalLane="edgeU-2-1_0" arrivalPos="183.90" arrivalSpeed="13.76" duration="44.00" routeLength="478.80" waitSteps="1" timeLoss="11.26" rerouteNo="0" devices="vehroute_flow8.5 tripinfo_flow8.5" vType="DEFAULT_VEHTYPE" vaporized=""/>
    <tripinfo id="flow4.5" depart="103.00" departLane="edgeR-2-0_0" departPos="5.10" departSpeed="0.00" departDelay="3.00" arrival="153.00" arrivalLane="edgeR-2-1_0" arrivalPos="283.90" arrivalSpeed="14.11" duration="50.00" routeLength="578.80" waitSteps="1" timeLoss="10.60" rerouteNo="0" devices="vehroute_flow4.5 tripinfo_flow4.5" vType="DEFAULT_VEHTYPE" vaporized=""/>
    <tripinfo id="flow5.5" depart="106.00" departLane="edgeR-2-0_0" departPos="5.10" departSpeed="0.00" departDelay="6.00" arrival="153.00" arrivalLane="edgeD-1-1_0" arrivalPos="283.90" arrivalSpeed="14.83" duration="47.00" routeLength="567.70" waitSteps="0" timeLoss="8.37" rerouteNo="0" devices="vehroute_flow5.5 tripinfo_flow5.5" vType="DEFAULT_VEHTYPE" vaporized=""/>
    <tripinfo id="flow6.5" depart="100.00" departLane="edgeU-1-1_0" departPos="5.10" departSpeed="0.00" departDelay="0.00" arrival="156.00" arrivalLane="edgeL-2-0_0" arrivalPos="283.90" arrivalSpeed="14.12" duration="56.00" routeLength="562.70" waitSteps="5" timeLoss="17.24" rerouteNo="0" devices="vehroute_flow6.5 tripinfo_flow6.5" vType="DEFAULT_VEHTYPE" vaporized=""/>