<?xml version="1.0" encoding="UTF-8"?>

<!-- generated on Fri Dec  9 21:10:18 2016 by SUMO Version 0.25.0
<?xml version="1.0" encoding="UTF-8"?>

<configuration xmlns:xsi="http://www.w3.org/2001/XMLSchema-instance" xsi:noNamespaceSchemaLocation="http://sumo.dlr.de/xsd/sumoConfiguration.xsd">

    <input>
        <net-file value="input.net.xml"/>
        <route-files value="input.rou.xml"/>
    </input>

    <output>
        <fcd-output value="input.fcd.xml"/>
    </output>

</configuration>
-->

<fcd-export xmlns:xsi="http://www.w3.org/2001/XMLSchema-instance" xsi:noNamespaceSchemaLocation="http://sumo.dlr.de/xsd/fcd_file.xsd">
    <timestep time="0.00"/>
    <timestep time="1.00">
        <vehicle id="50" x="4.40" y="998.35" angle="90.00" type="passenger" speed="11.33" pos="4.40" lane="edge1_2" slope="0.00"/>
    </timestep>
    <timestep time="2.00">
        <vehicle id="0" x="4.40" y="998.35" angle="90.00" type="passenger" speed="10.46" pos="4.40" lane="edge1_2" slope="0.00"/>
        <vehicle id="50" x="18.56" y="998.35" angle="90.00" type="passenger" speed="14.16" pos="18.56" lane="edge1_2" slope="0.00"/>
    </timestep>
    <timestep time="3.00">
        <vehicle id="0" x="14.37" y="998.35" angle="90.00" type="passenger" speed="9.97" pos="14.37" lane="edge1_2" slope="0.00"/>
        <vehicle id="100" x="4.40" y="995.05" angle="90.00" type="passenger" speed="7.07" pos="4.40" lane="edge1_1" slope="0.00"/>
        <vehicle id="50" x="34.10" y="998.35" angle="90.00" type="passenger" speed="15.54" pos="34.10" lane="edge1_2" slope="0.00"/>
    </timestep>
    <timestep time="4.00">
        <vehicle id="0" x="26.86" y="998.35" angle="90.00" type="passenger" speed="12.49" pos="26.86" lane="edge1_2" slope="0.00"/>
        <vehicle id="100" x="13.71" y="995.05" angle="90.00" type="passenger" speed="9.31" pos="13.71" lane="edge1_1" slope="0.00"/>
        <vehicle id="101" x="4.40" y="995.05" angle="90.00" type="passenger" speed="4.32" pos="4.40" lane="edge1_1" slope="0.00"/>
        <vehicle id="50" x="49.18" y="998.35" angle="90.00" type="passenger" speed="15.08" pos="49.18" lane="edge1_2" slope="0.00"/>
    </timestep>
    <timestep time="5.00">
        <vehicle id="0" x="40.19" y="998.35" angle="90.00" type="passenger" speed="13.33" pos="40.19" lane="edge1_2" slope="0.00"/>
        <vehicle id="100" x="25.45" y="995.05" angle="90.00" type="passenger" speed="11.74" pos="25.45" lane="edge1_1" slope="0.00"/>
        <vehicle id="101" x="7.73" y="995.05" angle="90.00" type="passenger" speed="3.33" pos="7.73" lane="edge1_1" slope="0.00"/>
        <vehicle id="50" x="65.01" y="998.35" angle="90.00" type="passenger" speed="15.83" pos="65.01" lane="edge1_2" slope="0.00"/>
    </timestep>
    <timestep time="6.00">
        <vehicle id="0" x="53.07" y="998.35" angle="90.00" type="passenger" speed="12.88" pos="53.07" lane="edge1_2" slope="0.00"/>
        <vehicle id="1" x="4.40" y="995.05" angle="90.00" type="passenger" speed="1.83" pos="4.40" lane="edge1_1" slope="0.00"/>
        <vehicle id="100" x="39.65" y="995.05" angle="90.00" type="passenger" speed="14.20" pos="39.65" lane="edge1_1" slope="0.00"/>
        <vehicle id="101" x="13.04" y="995.05" angle="90.00" type="passenger" speed="5.31" pos="13.04" lane="edge1_1" slope="0.00"/>
        <vehicle id="50" x="79.55" y="998.35" angle="90.00" type="passenger" speed="14.54" pos="79.55" lane="edge1_2" slope="0.00"/>
    </timestep>
    <timestep time="7.00">
        <vehicle id="0" x="66.04" y="998.35" angle="90.00" type="passenger" speed="12.97" pos="66.04" lane="edge1_2" slope="0.00"/>
        <vehicle id="1" x="6.20" y="995.05" angle="90.00" type="passenger" speed="1.80" pos="6.20" lane="edge1_1" slope="0.00"/>
        <vehicle id="100" x="54.02" y="995.05" angle="90.00" type="passenger" speed="14.37" pos="54.02" lane="edge1_1" slope="0.00"/>
        <vehicle id="101" x="20.90" y="995.05" angle="90.00" type="passenger" speed="7.87" pos="20.90" lane="edge1_1" slope="0.00"/>
        <vehicle id="50" x="95.01" y="995.05" angle="90.00" type="passenger" speed="15.46" pos="95.01" lane="edge1_1" slope="0.00"/>
    </timestep>
    <timestep time="8.00">
        <vehicle id="0" x="79.63" y="998.35" angle="90.00" type="passenger" speed="13.59" pos="79.63" lane="edge1_2" slope="0.00"/>
        <vehicle id="1" x="9.92" y="995.05" angle="90.00" type="passenger" speed="3.71" pos="9.92" lane="edge1_1" slope="0.00"/>
        <vehicle id="100" x="67.79" y="995.05" angle="90.00" type="passenger" speed="13.77" pos="67.79" lane="edge1_1" slope="0.00"/>
        <vehicle id="101" x="31.62" y="995.05" angle="90.00" type="passenger" speed="10.72" pos="31.62" lane="edge1_1" slope="0.00"/>
        <vehicle id="102" x="4.40" y="991.75" angle="90.00" type="passenger" speed="1.56" pos="4.40" lane="edge1_0" slope="0.00"/>
        <vehicle id="50" x="110.68" y="995.05" angle="90.00" type="passenger" speed="15.67" pos="110.68" lane="edge1_1" slope="0.00"/>
    </timestep>
    <timestep time="9.00">
        <vehicle id="0" x="92.88" y="998.35" angle="90.00" type="passenger" speed="13.25" pos="92.88" lane="edge1_2" slope="0.00"/>
        <vehicle id="1" x="16.28" y="995.05" angle="90.00" type="passenger" speed="6.37" pos="16.28" lane="edge1_1" slope="0.00"/>
        <vehicle id="100" x="82.56" y="991.75" angle="90.00" type="passenger" speed="14.77" pos="82.56" lane="edge1_0" slope="0.00"/>
        <vehicle id="101" x="44.92" y="995.05" angle="90.00" type="passenger" speed="13.30" pos="44.92" lane="edge1_1" slope="0.00"/>
        <vehicle id="102" x="8.27" y="991.75" angle="90.00" type="passenger" speed="3.87" pos="8.27" lane="edge1_0" slope="0.00"/>
        <vehicle id="50" x="125.18" y="995.05" angle="90.00" type="passenger" speed="14.50" pos="125.18" lane="edge1_1" slope="0.00"/>
    </timestep>
    <timestep time="10.00">
        <vehicle id="0" x="105.59" y="995.05" angle="90.00" type="passenger" speed="12.72" pos="105.59" lane="edge1_1" slope="0.00"/>
        <vehicle id="1" x="24.55" y="995.05" angle="90.00" type="passenger" speed="8.26" pos="24.55" lane="edge1_1" slope="0.00"/>
        <vehicle id="100" x="97.59" y="991.75" angle="90.00" type="passenger" speed="15.03" pos="97.59" lane="edge1_0" slope="0.00"/>
        <vehicle id="101" x="60.25" y="995.05" angle="90.00" type="passenger" speed="15.33" pos="60.25" lane="edge1_1" slope="0.00"/>
        <vehicle id="102" x="14.06" y="991.75" angle="90.00" type="passenger" speed="5.80" pos="14.06" lane="edge1_0" slope="0.00"/>
        <vehicle id="50" x="140.05" y="995.05" angle="90.00" type="passenger" speed="14.86" pos="140.05" lane="edge1_1" slope="0.00"/>
        <vehicle id="51" x="4.40" y="998.35" angle="90.00" type="passenger" speed="4.83" pos="4.40" lane="edge1_2" slope="0.00"/>
        <vehicle id="52" x="4.40" y="995.05" angle="90.00" type="passenger" speed="7.71" pos="4.40" lane="edge1_1" slope="0.00"/>
    </timestep>
    <timestep time="11.00">
        <vehicle id="0" x="119.63" y="995.05" angle="90.00" type="passenger" speed="14.03" pos="119.63" lane="edge1_1" slope="0.00"/>
        <vehicle id="1" x="34.92" y="995.05" angle="90.00" type="passenger" speed="10.37" pos="34.92" lane="edge1_1" slope="0.00"/>
        <vehicle id="100" x="112.48" y="991.75" angle="90.00" type="passenger" speed="14.89" pos="112.48" lane="edge1_0" slope="0.00"/>
        <vehicle id="101" x="76.09" y="995.05" angle="90.00" type="passenger" speed="15.84" pos="76.09" lane="edge1_1" slope="0.00"/>
        <vehicle id="102" x="21.83" y="991.75" angle="90.00" type="passenger" speed="7.77" pos="21.83" lane="edge1_0" slope="0.00"/>
        <vehicle id="103" x="4.40" y="995.05" angle="90.00" type="passenger" speed="4.23" pos="4.40" lane="edge1_1" slope="0.00"/>
        <vehicle id="2" x="4.40" y="991.75" angle="90.00" type="passenger" speed="4.36" pos="4.40" lane="edge1_0" slope="0.00"/>
        <vehicle id="50" x="155.73" y="995.05" angle="90.00" type="passenger" speed="15.68" pos="155.73" lane="edge1_1" slope="0.00"/>
        <vehicle id="51" x="12.03" y="998.35" angle="90.00" type="passenger" speed="7.63" pos="12.03" lane="edge1_2" slope="0.00"/>
        <vehicle id="52" x="13.66" y="995.05" angle="90.00" type="passenger" speed="9.26" pos="13.66" lane="edge1_1" slope="0.00"/>
    </timestep>
    <timestep time="12.00">
        <vehicle id="0" x="133.19" y="995.05" angle="90.00" type="passenger" speed="13.56" pos="133.19" lane="edge1_1" slope="0.00"/>
        <vehicle id="1" x="47.88" y="991.75" angle="90.00" type="passenger" speed="12.96" pos="47.88" lane="edge1_0" slope="0.00"/>
        <vehicle id="100" x="127.37" y="991.75" angle="90.00" type="passenger" speed="14.89" pos="127.37" lane="edge1_0" slope="0.00"/>
        <vehicle id="101" x="91.91" y="991.75" angle="90.00" type="passenger" speed="15.82" pos="91.91" lane="edge1_0" slope="0.00"/>
        <vehicle id="102" x="32.43" y="991.75" angle="90.00" type="passenger" speed="10.60" pos="32.43" lane="edge1_0" slope="0.00"/>
        <vehicle id="103" x="8.01" y="995.05" angle="90.00" type="passenger" speed="3.61" pos="8.01" lane="edge1_1" slope="0.00"/>
        <vehicle id="104" x="4.40" y="998.35" angle="90.00" type="passenger" speed="8.39" pos="4.40" lane="edge1_2" slope="0.00"/>
        <vehicle id="2" x="11.54" y="991.75" angle="90.00" type="passenger" speed="7.14" pos="11.54" lane="edge1_0" slope="0.00"/>
        <vehicle id="50" x="170.58" y="995.05" angle="90.00" type="passenger" speed="14.85" pos="170.58" lane="edge1_1" slope="0.00"/>
        <vehicle id="51" x="21.67" y="998.35" angle="90.00" type="passenger" speed="9.64" pos="21.67" lane="edge1_2" slope="0.00"/>
        <vehicle id="52" x="24.84" y="995.05" angle="90.00" type="passenger" speed="11.18" pos="24.84" lane="edge1_1" slope="0.00"/>
    </timestep>
    <timestep time="13.00">
        <vehicle id="0" x="146.83" y="995.05" angle="90.00" type="passenger" speed="13.64" pos="146.83" lane="edge1_1" slope="0.00"/>
        <vehicle id="1" x="62.73" y="991.75" angle="90.00" type="passenger" speed="14.85" pos="62.73" lane="edge1_0" slope="0.00"/>
        <vehicle id="100" x="141.33" y="991.75" angle="90.00" type="passenger" speed="13.96" pos="141.33" lane="edge1_0" slope="0.00"/>
        <vehicle id="101" x="107.30" y="991.75" angle="90.00" type="passenger" speed="15.39" pos="107.30" lane="edge1_0" slope="0.00"/>
        <vehicle id="102" x="42.71" y="991.75" angle="90.00" type="passenger" speed="10.28" pos="42.71" lane="edge1_0" slope="0.00"/>
        <vehicle id="103" x="13.25" y="995.05" angle="90.00" type="passenger" speed="5.24" pos="13.25" lane="edge1_1" slope="0.00"/>
        <vehicle id="104" x="13.11" y="998.35" angle="90.00" type="passenger" speed="8.71" pos="13.11" lane="edge1_2" slope="0.00"/>
        <vehicle id="2" x="20.17" y="991.75" angle="90.00" type="passenger" speed="8.63" pos="20.17" lane="edge1_0" slope="0.00"/>
        <vehicle id="50" x="186.44" y="991.75" angle="90.00" type="passenger" speed="15.87" pos="186.44" lane="edge1_0" slope="0.00"/>
        <vehicle id="51" x="33.30" y="998.35" angle="90.00" type="passenger" speed="11.63" pos="33.30" lane="edge1_2" slope="0.00"/>
        <vehicle id="52" x="37.98" y="995.05" angle="90.00" type="passenger" speed="13.14" pos="37.98" lane="edge1_1" slope="0.00"/>
    </timestep>
    <timestep time="14.00">
        <vehicle id="0" x="159.49" y="995.05" angle="90.00" type="passenger" speed="12.67" pos="159.49" lane="edge1_1" slope="0.00"/>
        <vehicle id="1" x="77.53" y="991.75" angle="90.00" type="passenger" speed="14.79" pos="77.53" lane="edge1_0" slope="0.00"/>
        <vehicle id="100" x="155.87" y="991.75" angle="90.00" type="passenger" speed="14.54" pos="155.87" lane="edge1_0" slope="0.00"/>
        <vehicle id="101" x="122.51" y="991.75" angle="90.00" type="passenger" speed="15.21" pos="122.51" lane="edge1_0" slope="0.00"/>
        <vehicle id="102" x="53.91" y="991.75" angle="90.00" type="passenger" speed="11.20" pos="53.91" lane="edge1_0" slope="0.00"/>
        <vehicle id="103" x="20.80" y="995.05" angle="90.00" type="passenger" speed="7.55" pos="20.80" lane="edge1_1" slope="0.00"/>
        <vehicle id="104" x="23.71" y="998.35" angle="90.00" type="passenger" speed="10.60" pos="23.71" lane="edge1_2" slope="0.00"/>
        <vehicle id="2" x="30.86" y="991.75" angle="90.00" type="passenger" speed="10.69" pos="30.86" lane="edge1_0" slope="0.00"/>
        <vehicle id="50" x="201.63" y="991.75" angle="90.00" type="passenger" speed="15.19" pos="201.63" lane="edge1_0" slope="0.00"/>
        <vehicle id="51" x="47.34" y="998.35" angle="90.00" type="passenger" speed="14.04" pos="47.34" lane="edge1_2" slope="0.00"/>
        <vehicle id="52" x="50.84" y="995.05" angle="90.00" type="passenger" speed="12.86" pos="50.84" lane="edge1_1" slope="0.00"/>
        <vehicle id="53" x="4.40" y="991.75" angle="90.00" type="passenger" speed="7.18" pos="4.40" lane="edge1_0" slope="0.00"/>
    </timestep>
    <timestep time="15.00">
        <vehicle id="0" x="172.29" y="995.05" angle="90.00" type="passenger" speed="12.80" pos="172.29" lane="edge1_1" slope="0.00"/>
        <vehicle id="1" x="91.95" y="991.75" angle="90.00" type="passenger" speed="14.42" pos="91.95" lane="edge1_0" slope="0.00"/>
        <vehicle id="100" x="169.89" y="991.75" angle="90.00" type="passenger" speed="14.02" pos="169.89" lane="edge1_0" slope="0.00"/>
        <vehicle id="101" x="138.34" y="991.75" angle="90.00" type="passenger" speed="15.83" pos="138.34" lane="edge1_0" slope="0.00"/>
        <vehicle id="102" x="66.19" y="991.75" angle="90.00" type="passenger" speed="12.29" pos="66.19" lane="edge1_0" slope="0.00"/>
        <vehicle id="103" x="30.55" y="995.05" angle="90.00" type="passenger" speed="9.75" pos="30.55" lane="edge1_1" slope="0.00"/>
        <vehicle id="104" x="36.64" y="998.35" angle="90.00" type="passenger" speed="12.93" pos="36.64" lane="edge1_2" slope="0.00"/>
        <vehicle id="2" x="42.68" y="991.75" angle="90.00" type="passenger" speed="11.82" pos="42.68" lane="edge1_0" slope="0.00"/>
        <vehicle id="50" x="216.57" y="991.75" angle="90.00" type="passenger" speed="14.94" pos="216.57" lane="edge1_0" slope="0.00"/>
        <vehicle id="51" x="62.96" y="998.35" angle="90.00" type="passenger" speed="15.63" pos="62.96" lane="edge1_2" slope="0.00"/>
        <vehicle id="52" x="63.59" y="995.05" angle="90.00" type="passenger" speed="12.75" pos="63.59" lane="edge1_1" slope="0.00"/>
        <vehicle id="53" x="14.27" y="991.75" angle="90.00" type="passenger" speed="9.87" pos="14.27" lane="edge1_0" slope="0.00"/>
        <vehicle id="54" x="4.40" y="995.05" angle="90.00" type="passenger" speed="2.41" pos="4.40" lane="edge1_1" slope="0.00"/>
    </timestep>
    <timestep time="16.00">
        <vehicle id="0" x="185.38" y="995.05" angle="90.00" type="passenger" speed="13.09" pos="185.38" lane="edge1_1" slope="0.00"/>
        <vehicle id="1" x="106.78" y="991.75" angle="90.00" type="passenger" speed="14.83" pos="106.78" lane="edge1_0" slope="0.00"/>
        <vehicle id="100" x="184.55" y="991.75" angle="90.00" type="passenger" speed="14.66" pos="184.55" lane="edge1_0" slope="0.00"/>
        <vehicle id="101" x="153.62" y="991.75" angle="90.00" type="passenger" speed="15.28" pos="153.62" lane="edge1_0" slope="0.00"/>
        <vehicle id="102" x="77.81" y="991.75" angle="90.00" type="passenger" speed="11.61" pos="77.81" lane="edge1_0" slope="0.00"/>
        <vehicle id="103" x="42.37" y="995.05" angle="90.00" type="passenger" speed="11.82" pos="42.37" lane="edge1_1" slope="0.00"/>
        <vehicle id="104" x="51.55" y="998.35" angle="90.00" type="passenger" speed="14.90" pos="51.55" lane="edge1_2" slope="0.00"/>
        <vehicle id="2" x="55.13" y="991.75" angle="90.00" type="passenger" speed="12.45" pos="55.13" lane="edge1_0" slope="0.00"/>
        <vehicle id="3" x="4.40" y="998.35" angle="90.00" type="passenger" speed="15.91" pos="4.40" lane="edge1_2" slope="0.00"/>
        <vehicle id="50" x="231.16" y="991.75" angle="90.00" type="passenger" speed="14.59" pos="231.16" lane="edge1_0" slope="0.00"/>
        <vehicle id="51" x="77.41" y="998.35" angle="90.00" type="passenger" speed="14.45" pos="77.41" lane="edge1_2" slope="0.00"/>
        <vehicle id="52" x="76.02" y="995.05" angle="90.00" type="passenger" speed="12.43" pos="76.02" lane="edge1_1" slope="0.00"/>
        <vehicle id="53" x="26.50" y="991.75" angle="90.00" type="passenger" speed="12.22" pos="26.50" lane="edge1_0" slope="0.00"/>
        <vehicle id="54" x="9.56" y="995.05" angle="90.00" type="passenger" speed="5.16" pos="9.56" lane="edge1_1" slope="0.00"/>
    </timestep>
    <timestep time="17.00">
        <vehicle id="0" x="199.11" y="995.05" angle="90.00" type="passenger" speed="13.73" pos="199.11" lane="edge1_1" slope="0.00"/>
        <vehicle id="1" x="120.92" y="991.75" angle="90.00" type="passenger" speed="14.14" pos="120.92" lane="edge1_0" slope="0.00"/>
        <vehicle id="100" x="198.42" y="991.75" angle="90.00" type="passenger" speed="13.87" pos="198.42" lane="edge1_0" slope="0.00"/>
        <vehicle id="101" x="169.16" y="991.75" angle="90.00" type="passenger" speed="15.54" pos="169.16" lane="edge1_0" slope="0.00"/>
        <vehicle id="102" x="90.03" y="991.75" angle="90.00" type="passenger" speed="12.22" pos="90.03" lane="edge1_0" slope="0.00"/>
        <vehicle id="103" x="56.44" y="995.05" angle="90.00" type="passenger" speed="14.07" pos="56.44" lane="edge1_1" slope="0.00"/>
        <vehicle id="104" x="67.70" y="998.35" angle="90.00" type="passenger" speed="16.15" pos="67.70" lane="edge1_2" slope="0.00"/>
        <vehicle id="2" x="67.48" y="991.75" angle="90.00" type="passenger" speed="12.35" pos="67.48" lane="edge1_0" slope="0.00"/>
        <vehicle id="3" x="20.54" y="998.35" angle="90.00" type="passenger" speed="16.14" pos="20.54" lane="edge1_2" slope="0.00"/>
        <vehicle id="4" x="4.40" y="995.05" angle="90.00" type="passenger" speed="5.47" pos="4.40" lane="edge1_1" slope="0.00"/>
        <vehicle id="50" x="245.64" y="991.75" angle="90.00" type="passenger" speed="14.48" pos="245.64" lane="edge1_0" slope="0.00"/>
        <vehicle id="51" x="91.76" y="998.35" angle="90.00" type="passenger" speed="14.36" pos="91.76" lane="edge1_2" slope="0.00"/>
        <vehicle id="52" x="88.82" y="995.05" angle="90.00" type="passenger" speed="12.80" pos="88.82" lane="edge1_1" slope="0.00"/>
        <vehicle id="53" x="40.46" y="991.75" angle="90.00" type="passenger" speed="13.97" pos="40.46" lane="edge1_0" slope="0.00"/>
        <vehicle id="54" x="16.67" y="995.05" angle="90.00" type="passenger" speed="7.11" pos="16.67" lane="edge1_1" slope="0.00"/>
    </timestep>
    <timestep time="18.00">
        <vehicle id="0" x="213.03" y="995.05" angle="90.00" type="passenger" speed="13.92" pos="213.03" lane="edge1_1" slope="0.00"/>
        <vehicle id="1" x="135.24" y="991.75" angle="90.00" type="passenger" speed="14.32" pos="135.24" lane="edge1_0" slope="0.00"/>
        <vehicle id="100" x="212.87" y="991.75" angle="90.00" type="passenger" speed="14.45" pos="212.87" lane="edge1_0" slope="0.00"/>
        <vehicle id="101" x="184.04" y="991.75" angle="90.00" type="passenger" speed="14.88" pos="184.04" lane="edge1_0" slope="0.00"/>
        <vehicle id="102" x="101.82" y="991.75" angle="90.00" type="passenger" speed="11.79" pos="101.82" lane="edge1_0" slope="0.00"/>
        <vehicle id="103" x="69.86" y="995.05" angle="90.00" type="passenger" speed="13.42" pos="69.86" lane="edge1_1" slope="0.00"/>
        <vehicle id="104" x="82.71" y="998.35" angle="90.00" type="passenger" speed="15.01" pos="82.71" lane="edge1_2" slope="0.00"/>
        <vehicle id="105" x="4.40" y="998.35" angle="90.00" type="passenger" speed="8.06" pos="4.40" lane="edge1_2" slope="0.00"/>
        <vehicle id="2" x="79.11" y="991.75" angle="90.00" type="passenger" speed="11.63" pos="79.11" lane="edge1_0" slope="0.00"/>
        <vehicle id="3" x="36.22" y="998.35" angle="90.00" type="passenger" speed="15.68" pos="36.22" lane="edge1_2" slope="0.00"/>
        <vehicle id="4" x="8.82" y="995.05" angle="90.00" type="passenger" speed="4.42" pos="8.82" lane="edge1_1" slope="0.00"/>
        <vehicle id="50" x="260.09" y="991.75" angle="90.00" type="passenger" speed="14.45" pos="260.09" lane="edge1_0" slope="0.00"/>
        <vehicle id="51" x="106.81" y="998.35" angle="90.00" type="passenger" speed="15.04" pos="106.81" lane="edge1_2" slope="0.00"/>
        <vehicle id="52" x="101.89" y="995.05" angle="90.00" type="passenger" speed="13.07" pos="101.89" lane="edge1_1" slope="0.00"/>
        <vehicle id="53" x="55.38" y="991.75" angle="90.00" type="passenger" speed="14.91" pos="55.38" lane="edge1_0" slope="0.00"/>
        <vehicle id="54" x="26.21" y="995.05" angle="90.00" type="passenger" speed="9.54" pos="26.21" lane="edge1_1" slope="0.00"/>
    </timestep>
    <timestep time="19.00">
        <vehicle id="0" x="226.49" y="995.05" angle="90.00" type="passenger" speed="13.46" pos="226.49" lane="edge1_1" slope="0.00"/>
        <vehicle id="1" x="150.41" y="991.75" angle="90.00" type="passenger" speed="15.17" pos="150.41" lane="edge1_0" slope="0.00"/>
        <vehicle id="100" x="227.69" y="991.75" angle="90.00" type="passenger" speed="14.83" pos="227.69" lane="edge1_0" slope="0.00"/>
        <vehicle id="101" x="199.95" y="991.75" angle="90.00" type="passenger" speed="15.91" pos="199.95" lane="edge1_0" slope="0.00"/>
        <vehicle id="102" x="112.95" y="991.75" angle="90.00" type="passenger" speed="11.13" pos="112.95" lane="edge1_0" slope="0.00"/>
        <vehicle id="103" x="83.65" y="995.05" angle="90.00" type="passenger" speed="13.79" pos="83.65" lane="edge1_1" slope="0.00"/>
        <vehicle id="104" x="97.17" y="998.35" angle="90.00" type="passenger" speed="14.46" pos="97.17" lane="edge1_2" slope="0.00"/>
        <vehicle id="105" x="14.21" y="998.35" angle="90.00" type="passenger" speed="9.81" pos="14.21" lane="edge1_2" slope="0.00"/>
        <vehicle id="106" x="4.40" y="995.05" angle="90.00" type="passenger" speed="0.49" pos="4.40" lane="edge1_1" slope="0.00"/>
        <vehicle id="2" x="91.50" y="991.75" angle="90.00" type="passenger" speed="12.39" pos="91.50" lane="edge1_0" slope="0.00"/>
        <vehicle id="3" x="52.24" y="998.35" angle="90.00" type="passenger" speed="16.02" pos="52.24" lane="edge1_2" slope="0.00"/>
        <vehicle id="4" x="14.78" y="995.05" angle="90.00" type="passenger" speed="5.96" pos="14.78" lane="edge1_1" slope="0.00"/>
        <vehicle id="5" x="4.40" y="991.75" angle="90.00" type="passenger" speed="1.11" pos="4.40" lane="edge1_0" slope="0.00"/>
        <vehicle id="50" x="275.85" y="991.75" angle="90.00" type="passenger" speed="15.76" pos="275.85" lane="edge1_0" slope="0.00"/>
        <vehicle id="51" x="122.17" y="998.35" angle="90.00" type="passenger" speed="15.37" pos="122.17" lane="edge1_2" slope="0.00"/>
        <vehicle id="52" x="114.50" y="995.05" angle="90.00" type="passenger" speed="12.61" pos="114.50" lane="edge1_1" slope="0.00"/>
        <vehicle id="53" x="69.30" y="991.75" angle="90.00" type="passenger" speed="13.92" pos="69.30" lane="edge1_0" slope="0.00"/>
        <vehicle id="54" x="38.30" y="995.05" angle="90.00" type="passenger" speed="12.09" pos="38.30" lane="edge1_1" slope="0.00"/>
    </timestep>
    <timestep time="20.00">
        <vehicle id="0" x="239.50" y="995.05" angle="90.00" type="passenger" speed="13.00" pos="239.50" lane="edge1_1" slope="0.00"/>
        <vehicle id="1" x="165.86" y="991.75" angle="90.00" type="passenger" speed="15.44" pos="165.86" lane="edge1_0" slope="0.00"/>
        <vehicle id="100" x="242.68" y="991.75" angle="90.00" type="passenger" speed="14.98" pos="242.68" lane="edge1_0" slope="0.00"/>
        <vehicle id="101" x="215.53" y="991.75" angle="90.00" type="passenger" speed="15.58" pos="215.53" lane="edge1_0" slope="0.00"/>
        <vehicle id="102" x="124.57" y="991.75" angle="90.00" type="passenger" speed="11.61" pos="124.57" lane="edge1_0" slope="0.00"/>
        <vehicle id="103" x="97.44" y="995.05" angle="90.00" type="passenger" speed="13.79" pos="97.44" lane="edge1_1" slope="0.00"/>
        <vehicle id="104" x="113.47" y="998.35" angle="90.00" type="passenger" speed="16.30" pos="113.47" lane="edge1_2" slope="0.00"/>
        <vehicle id="105" x="26.58" y="998.35" angle="90.00" type="passenger" speed="12.37" pos="26.58" lane="edge1_2" slope="0.00"/>
        <vehicle id="106" x="7.63" y="995.05" angle="90.00" type="passenger" speed="3.23" pos="7.63" lane="edge1_1" slope="0.00"/>
        <vehicle id="2" x="104.23" y="991.75" angle="90.00" type="passenger" speed="12.73" pos="104.23" lane="edge1_0" slope="0.00"/>
        <vehicle id="3" x="68.24" y="998.35" angle="90.00" type="passenger" speed="16.00" pos="68.24" lane="edge1_2" slope="0.00"/>
        <vehicle id="4" x="23.06" y="995.05" angle="90.00" type="passenger" speed="8.28" pos="23.06" lane="edge1_1" slope="0.00"/>
        <vehicle id="5" x="7.26" y="991.75" angle="90.00" type="passenger" speed="2.86" pos="7.26" lane="edge1_0" slope="0.00"/>
        <vehicle id="50" x="290.78" y="991.75" angle="90.00" type="passenger" speed="14.93" pos="290.78" lane="edge1_0" slope="0.00"/>
        <vehicle id="51" x="137.10" y="998.35" angle="90.00" type="passenger" speed="14.92" pos="137.10" lane="edge1_2" slope="0.00"/>
        <vehicle id="52" x="126.92" y="995.05" angle="90.00" type="passenger" speed="12.41" pos="126.92" lane="edge1_1" slope="0.00"/>
        <vehicle id="53" x="82.57" y="991.75" angle="90.00" type="passenger" speed="13.27" pos="82.57" lane="edge1_0" slope="0.00"/>
        <vehicle id="54" x="51.87" y="995.05" angle="90.00" type="passenger" speed="13.57" pos="51.87" lane="edge1_1" slope="0.00"/>
        <vehicle id="55" x="4.40" y="998.35" angle="90.00" type="passenger" speed="13.23" pos="4.40" lane="edge1_2" slope="0.00"/>
    </timestep>
    <timestep time="21.00">
        <vehicle id="0" x="253.13" y="995.05" angle="90.00" type="passenger" speed="13.64" pos="253.13" lane="edge1_1" slope="0.00"/>
        <vehicle id="1" x="180.98" y="991.75" angle="90.00" type="passenger" speed="15.12" pos="180.98" lane="edge1_0" slope="0.00"/>
        <vehicle id="100" x="257.51" y="991.75" angle="90.00" type="passenger" speed="14.83" pos="257.51" lane="edge1_0" slope="0.00"/>
        <vehicle id="101" x="230.45" y="991.75" angle="90.00" type="passenger" speed="14.91" pos="230.45" lane="edge1_0" slope="0.00"/>
        <vehicle id="102" x="136.76" y="991.75" angle="90.00" type="passenger" speed="12.19" pos="136.76" lane="edge1_0" slope="0.00"/>
        <vehicle id="103" x="110.31" y="995.05" angle="90.00" type="passenger" speed="12.87" pos="110.31" lane="edge1_1" slope="0.00"/>
        <vehicle id="104" x="128.74" y="998.35" angle="90.00" type="passenger" speed="15.28" pos="128.74" lane="edge1_2" slope="0.00"/>
        <vehicle id="105" x="40.41" y="998.35" angle="90.00" type="passenger" speed="13.83" pos="40.41" lane="edge1_2" slope="0.00"/>
        <vehicle id="106" x="13.23" y="995.05" angle="90.00" type="passenger" speed="5.60" pos="13.23" lane="edge1_1" slope="0.00"/>
        <vehicle id="107" x="4.40" y="998.35" angle="90.00" type="passenger" speed="10.43" pos="4.40" lane="edge1_2" slope="0.00"/>
        <vehicle id="108" x="4.40" y="995.05" angle="90.00" type="passenger" speed="2.03" pos="4.40" lane="edge1_1" slope="0.00"/>
        <vehicle id="2" x="116.30" y="991.75" angle="90.00" type="passenger" speed="12.07" pos="116.30" lane="edge1_0" slope="0.00"/>
        <vehicle id="3" x="84.25" y="998.35" angle="90.00" type="passenger" speed="16.01" pos="84.25" lane="edge1_2" slope="0.00"/>
        <vehicle id="4" x="32.89" y="995.05" angle="90.00" type="passenger" speed="9.83" pos="32.89" lane="edge1_1" slope="0.00"/>
        <vehicle id="5" x="12.38" y="991.75" angle="90.00" type="passenger" speed="5.12" pos="12.38" lane="edge1_0" slope="0.00"/>
        <vehicle id="50" x="305.37" y="991.75" angle="90.00" type="passenger" speed="14.59" pos="305.37" lane="edge1_0" slope="0.00"/>
        <vehicle id="51" x="152.76" y="998.35" angle="90.00" type="passenger" speed="15.67" pos="152.76" lane="edge1_2" slope="0.00"/>
        <vehicle id="52" x="139.10" y="995.05" angle="90.00" type="passenger" speed="12.19" pos="139.10" lane="edge1_1" slope="0.00"/>
        <vehicle id="53" x="95.98" y="991.75" angle="90.00" type="passenger" speed="13.41" pos="95.98" lane="edge1_0" slope="0.00"/>
        <vehicle id="54" x="67.13" y="995.05" angle="90.00" type="passenger" speed="15.26" pos="67.13" lane="edge1_1" slope="0.00"/>
        <vehicle id="55" x="18.23" y="998.35" angle="90.00" type="passenger" speed="13.83" pos="18.23" lane="edge1_2" slope="0.00"/>
    </timestep>
    <timestep time="22.00">
        <vehicle id="0" x="266.05" y="995.05" angle="90.00" type="passenger" speed="12.92" pos="266.05" lane="edge1_1" slope="0.00"/>
        <vehicle id="1" x="195.64" y="991.75" angle="90.00" type="passenger" speed="14.66" pos="195.64" lane="edge1_0" slope="0.00"/>
        <vehicle id="100" x="272.61" y="991.75" angle="90.00" type="passenger" speed="15.10" pos="272.61" lane="edge1_0" slope="0.00"/>
        <vehicle id="101" x="245.53" y="991.75" angle="90.00" type="passenger" speed="15.09" pos="245.53" lane="edge1_0" slope="0.00"/>
        <vehicle id="102" x="148.38" y="991.75" angle="90.00" type="passenger" speed="11.62" pos="148.38" lane="edge1_0" slope="0.00"/>
        <vehicle id="103" x="123.82" y="995.05" angle="90.00" type="passenger" speed="13.51" pos="123.82" lane="edge1_1" slope="0.00"/>
        <vehicle id="104" x="144.46" y="998.35" angle="90.00" type="passenger" speed="15.72" pos="144.46" lane="edge1_2" slope="0.00"/>
        <vehicle id="105" x="53.96" y="998.35" angle="90.00" type="passenger" speed="13.55" pos="53.96" lane="edge1_2" slope="0.00"/>