<?xml version="1.0" encoding="UTF-8"?>

<!-- generated on Fri 03 Mar 2017 10:55:20 PM CST by SUMO gui Version 0.19.0
<?xml version="1.0" encoding="UTF-8"?>

<configuration xmlns:xsi="http://www.w3.org/2001/XMLSchema-instance" xsi:noNamespaceSchemaLocation="http://sumo-sim.org/xsd/sumo-gui.exeConfiguration.xsd">

    <input>
        <net-file value="/home/zenghaien/SUMO/route3/MySUMONet.net.xml"/>
        <route-files value="/home/zenghaien/SUMO/route3/ex_ROU.rou.xml"/>
    </input>

    <output>
        <netstate-dump value="/home/zenghaien/SUMO/route3/ex_sumo.sumo.tr"/>
        <emission-output value="/home/zenghaien/SUMO/route3/output-emissions.xml"/>
        <tripinfo-output value="/home/zenghaien/SUMO/route3/output-tripinfos.xml"/>
        <vehroute-output value="/home/zenghaien/SUMO/route3/output-vehroutes.xml"/>
        <save-state.prefix value="/home/zenghaien/SUMO/route3/state"/>
    </output>

    <time>
        <begin value="0"/>
        <end value="2000"/>
    </time>

    <processing>
        <route-steps value="-1"/>
        <time-to-teleport value="-1"/>
    </processing>

    <report>
        <print-options value="false"/>
    </report>

    <random_number>
        <seed value="23423"/>
    </random_number>

</configuration>
-->

<tripinfos>
    <tripinfo id="flow6.0" depart="0.00" departLane="edge-3-5_0" departPos="5.10" departSpeed="0.00" departDelay="0.00" arrival="145.00" arrivalLane="edge-5-2_0" arrivalPos="991.95" arrivalSpeed="14.95" duration="145.00" routeLength="1978.80" waitSteps="0" rerouteNo="0" devices="vehroute_flow6.0 tripinfo_flow6.0" vType="DEFAULT_VEHTYPE" vaporized=""/>
    <tripinfo id="flow3.0" depart="0.00" departLane="edge-2-5_0" departPos="5.10" departSpeed="0.00" departDelay="0.00" arrival="145.00" arrivalLane="edge-5-1_0" arrivalPos="991.95" arrivalSpeed="15.00" duration="145.00" routeLength="1978.80" waitSteps="0" rerouteNo="0" devices="vehroute_flow3.0 tripinfo_flow3.0" vType="DEFAULT_VEHTYPE" vaporized=""/>
    <tripinfo id="flow10.0" depart="0.00" departLane="edge-4-5_0" departPos="5.10" departSpeed="0.00" departDelay="0.00" arrival="147.00" arrivalLane="edge-5-2_1" arrivalPos="991.95" arrivalSpeed="14.82" duration="147.00" routeLength="1978.80" waitSteps="0" rerouteNo="0" devices="vehroute_flow10.0 tripinfo_flow10.0" vType="DEFAULT_VEHTYPE" vaporized=""/>
    <tripinfo id="flow0.0" depart="0.00" departLane="edge-1-5_0" departPos="5.10" departSpeed="0.00" departDelay="0.00" arrival="149.00" arrivalLane="edge-5-2_1" arrivalPos="991.95" arrivalSpeed="13.87" duration="149.00" routeLength="1978.80" waitSteps="0" rerouteNo="0" devices="vehroute_flow0.0 tripinfo_flow0.0" vType="DEFAULT_VEHTYPE" vaporized=""/>
    <tripinfo id="flow1.0" depart="3.00" departLane="edge-1-5_0" departPos="5.10" departSpeed="0.00" departDelay="3.00" arrival="149.00" arrivalLane="edge-5-3_0" arrivalPos="991.95" arrivalSpeed="14.51" duration="146.00" routeLength="1978.80" waitSteps="0" rerouteNo="0" devices="vehroute_flow1.0 tripinfo_flow1.0" vType="DEFAULT_VEHTYPE" vaporized=""/>
    <tripinfo id="flow2.0" depart="6.00" departLane="edge-1-5_0" departPos="5.10" departSpeed="0.00" departDelay="6.00" arrival="152.00" arrivalLane="edge-5-4_0" arrivalPos="991.95" arrivalSpeed="14.11" duration="146.00" routeLength="1978.80" waitSteps="0" rerouteNo="0" devices="vehroute_flow2.0 tripinfo_flow2.0" vType="DEFAULT_VEHTYPE" vaporized=""/>
    <tripinfo id="flow11.0" depart="3.00" departLane="edge-4-5_0" departPos="5.10" departSpeed="0.00" departDelay="3.00" arrival="153.00" arrivalLane="edge-5-3_0" arrivalPos="991.95" arrivalSpeed="14.06" duration="150.00" routeLength="1978.80" waitSteps="0" rerouteNo="0" devices="vehroute_flow11.0 tripinfo_flow11.0" vType="DEFAULT_VEHTYPE" vaporized=""/>
    <tripinfo id="flow4.0" depart="3.00" departLane="edge-2-5_0" departPos="5.10" departSpeed="0.00" departDelay="3.00" arrival="155.00" arrivalLane="edge-5-4_0" arrivalPos="991.95" arrivalSpeed="14.79" duration="152.00" routeLength="1978.80" waitSteps="2" rerouteNo="0" devices="vehroute_flow4.0 tripinfo_flow4.0" vType="DEFAULT_VEHTYPE" vaporized=""/>
    <tripinfo id="flow5.0" depart="6.00" departLane="edge-2-5_0" departPos="5.10" departSpeed="0.00" departDelay="6.00" arrival="156.00" arrivalLane="edge-5-3_1" arrivalPos="991.95" arrivalSpeed="14.30" duration="150.00" routeLength="1978.80" waitSteps="0" rerouteNo="0" devices="vehroute_flow5.0 tripinfo_flow5.0" vType="DEFAULT_VEHTYPE" vaporized=""/>
    <tripinfo id="flow7.0" depart="3.00" departLane="edge-3-5_0" departPos="5.10" departSpeed="0.00" departDelay="3.00" arrival="158.00" arrivalLane="edge-5-1_0" arrivalPos="991.95" arrivalSpeed="14.85" duration="155.00" routeLength="1978.80" waitSteps="5" rerouteNo="0" devices="vehroute_flow7.0 tripinfo_flow7.0" vType="DEFAULT_VEHTYPE" vaporized=""/>
    <tripinfo id="flow8.0" depart="6.00" departLane="edge-3-5_0" departPos="5.10" departSpeed="0.00" departDelay="6.00" arrival="159.00" arrivalLane="edge-5-4_1" arrivalPos="991.95" arrivalSpeed="13.91" duration="153.00" routeLength="1978.80" waitSteps="0" rerouteNo="0" devices="vehroute_flow8.0 tripinfo_flow8.0" vType="DEFAULT_VEHTYPE" vaporized=""/>
    <tripinfo id="flow6.1" depart="20.00" departLane="edge-3-5_0" departPos="5.10" departSpeed="0.00" departDelay="0.00" arrival="165.00" arrivalLane="edge-5-2_0" arrivalPos="991.95" arrivalSpeed="14.64" duration="145.00" routeLength="1978.80" waitSteps="0" rerouteNo="0" devices="vehroute_flow6.1 tripinfo_flow6.1" vType="DEFAULT_VEHTYPE" vaporized=""/>
    <tripinfo id="flow3.1" depart="20.00" departLane="edge-2-5_0" departPos="5.10" departSpeed="0.00" departDelay="0.00" arrival="165.00" arrivalLane="edge-5-1_0" arrivalPos="991.95" arrivalSpeed="14.68" duration="145.00" routeLength="1978.80" waitSteps="0" rerouteNo="0" devices="vehroute_flow3.1 tripinfo_flow3.1" vType="DEFAULT_VEHTYPE" vaporized=""/>
    <tripinfo id="flow9.0" depart="6.00" departLane="edge-4-5_0" departPos="5.10" departSpeed="0.00" departDelay="6.00" arrival="169.00" arrivalLane="edge-5-1_1" arrivalPos="991.95" arrivalSpeed="14.83" duration="163.00" routeLength="1978.80" waitSteps="11" rerouteNo="0" devices="vehroute_flow9.0 tripinfo_flow9.0" vType="DEFAULT_VEHTYPE" vaporized=""/>
    <tripinfo id="flow1.1" depart="23.00" departLane="edge-1-5_0" departPos="5.10" departSpeed="0.00" departDelay="3.00" arrival="170.00" arrivalLane="edge-5-3_0" arrivalPos="991.95" arrivalSpeed="13.84" duration="147.00" routeLength="1978.80" waitSteps="0" rerouteNo="0" devices="vehroute_flow1.1 tripinfo_flow1.1" vType="DEFAULT_VEHTYPE" vaporized=""/>
    <tripinfo id="flow0.1" depart="20.00" departLane="edge-1-5_0" departPos="5.10" departSpeed="0.00" departDelay="0.00" arrival="172.00" arrivalLane="edge-5-2_1" arrivalPos="991.95" arrivalSpeed="14.73" duration="152.00" routeLength="1978.80" waitSteps="1" rerouteNo="0" devices="vehroute_flow0.1 tripinfo_flow0.1" vType="DEFAULT_VEHTYPE" vaporized=""/>
    <tripinfo id="flow2.1" depart="26.00" departLane="edge-1-5_0" departPos="5.10" departSpeed="0.00" departDelay="6.00" arrival="173.00" arrivalLane="edge-5-4_0" arrivalPos="991.95" arrivalSpeed="14.30" duration="147.00" routeLength="1978.80" waitSteps="0" rerouteNo="0" devices="vehroute_flow2.1 tripinfo_flow2.1" vType="DEFAULT_VEHTYPE" vaporized=""/>
    <tripinfo id="flow9.1" depart="26.00" departLane="edge-4-5_0" departPos="5.10" departSpeed="0.00" departDelay="6.00" arrival="175.00" arrivalLane="edge-5-1_1" arrivalPos="991.95" arrivalSpeed="13.73" duration="149.00" routeLength="1978.80" waitSteps="0" rerouteNo="0" devices="vehroute_flow9.1 tripinfo_flow9.1" vType="DEFAULT_VEHTYPE" vaporized=""/>
    <tripinfo id="flow10.1" depart="20.00" departLane="edge-4-5_0" departPos="5.10" departSpeed="0.00" departDelay="0.00" arrival="175.00" arrivalLane="edge-5-2_0" arrivalPos="991.95" arrivalSpeed="13.82" duration="155.00" routeLength="1978.80" waitSteps="4" rerouteNo="0" devices="vehroute_flow10.1 tripinfo_flow10.1" vType="DEFAULT_VEHTYPE" vaporized=""/>
    <tripinfo id="flow11.1" depart="23.00" departLane="edge-4-5_0" departPos="5.10" departSpeed="0.00" departDelay="3.00" arrival="176.00" arrivalLane="edge-5-3_0" arrivalPos="991.95" arrivalSpeed="14.52" duration="153.00" routeLength="1978.80" waitSteps="3" rerouteNo="0" devices="vehroute_flow11.1 tripinfo_flow11.1" vType="DEFAULT_VEHTYPE" vaporized=""/>
    <tripinfo id="flow8.1" depart="26.00" departLane="edge-3-5_0" departPos="5.10" departSpeed="0.00" departDelay="6.00" arrival="179.00" arrivalLane="edge-5-4_1" arrivalPos="991.95" arrivalSpeed="14.79" duration="153.00" routeLength="1978.80" waitSteps="2" rerouteNo="0" devices="vehroute_flow8.1 tripinfo_flow8.1" vType="DEFAULT_VEHTYPE" vaporized=""/>
    <tripinfo id="flow7.1" depart="23.00" departLane="edge-3-5_0" departPos="5.10" departSpeed="0.00" departDelay="3.00" arrival="179.00" arrivalLane="edge-5-1_0" arrivalPos="991.95" arrivalSpeed="14.47" duration="156.00" routeLength="1978.80" waitSteps="5" rerouteNo="0" devices="vehroute_flow7.1 tripinfo_flow7.1" vType="DEFAULT_VEHTYPE" vaporized=""/>
    <tripinfo id="flow6.2" depart="40.00" departLane="edge-3-5_0" departPos="5.10" departSpeed="0.00" departDelay="0.00" arrival="185.00" arrivalLane="edge-5-2_0" arrivalPos="991.95" arrivalSpeed="13.72" duration="145.00" routeLength="1978.80" waitSteps="0" rerouteNo="0" devices="vehroute_flow6.2 tripinfo_flow6.2" vType="DEFAULT_VEHTYPE" vaporized=""/>
    <tripinfo id="flow4.1" depart="23.00" departLane="edge-2-5_0" departPos="5.10" departSpeed="0.00" departDelay="3.00" arrival="186.00" arrivalLane="edge-5-4_0" arrivalPos="991.95" arrivalSpeed="14.59" duration="163.00" routeLength="1978.80" waitSteps="11" rerouteNo="0" devices="vehroute_flow4.1 tripinfo_flow4.1" vType="DEFAULT_VEHTYPE" vaporized=""/>
    <tripinfo id="flow3.2" depart="40.00" departLane="edge-2-5_0" departPos="5.10" departSpeed="0.00" departDelay="0.00" arrival="187.00" arrivalLane="edge-5-1_0" arrivalPos="991.95" arrivalSpeed="14.20" duration="147.00" routeLength="1978.80" waitSteps="0" rerouteNo="0" devices="vehroute_flow3.2 tripinfo_flow3.2" vType="DEFAULT_VEHTYPE" vaporized=""/>
    <tripinfo id="flow1.2" depart="43.00" departLane="edge-1-5_0" departPos="5.10" departSpeed="0.00" departDelay="3.00" arrival="188.00" arrivalLane="edge-5-3_0" arrivalPos="991.95" arrivalSpeed="14.09" duration="145.00" routeLength="1978.80" waitSteps="0" rerouteNo="0" devices="vehroute_flow1.2 tripinfo_flow1.2" vType="DEFAULT_VEHTYPE" vaporized=""/>
    <tripinfo id="flow0.2" depart="40.00" departLane="edge-1-5_0" departPos="5.10" departSpeed="0.00" departDelay="0.00" arrival="190.00" arrivalLane="edge-5-2_1" arrivalPos="991.95" arrivalSpeed="13.97" duration="150.00" routeLength="1978.80" waitSteps="0" rerouteNo="0" devices="vehroute_flow0.2 tripinfo_flow0.2" vType="DEFAULT_VEHTYPE" vaporized=""/>
    <tripinfo id="flow2.2" depart="46.00" departLane="edge-1-5_0" departPos="5.10" departSpeed="0.00" departDelay="6.00" arrival="191.00" arrivalLane="edge-5-4_0" arrivalPos="991.95" arrivalSpeed="13.82" duration="145.00" routeLength="1978.80" waitSteps="0" rerouteNo="0" devices="vehroute_flow2.2 tripinfo_flow2.2" vType="DEFAULT_VEHTYPE" vaporized=""/>
    <tripinfo id="flow9.2" depart="46.00" departLane="edge-4-5_0" departPos="5.10" departSpeed="0.00" departDelay="6.00" arrival="193.00" arrivalLane="edge-5-1_1" arrivalPos="991.95" arrivalSpeed="13.74" duration="147.00" routeLength="1978.80" waitSteps="0" rerouteNo="0" devices="vehroute_flow9.2 tripinfo_flow9.2" vType="DEFAULT_VEHTYPE" vaporized=""/>
    <tripinfo id="flow10.2" depart="40.00" departLane="edge-4-5_0" departPos="5.10" departSpeed="0.00" departDelay="0.00" arrival="193.00" arrivalLane="edge-5-2_0" arrivalPos="991.95" arrivalSpeed="14.94" duration="153.00" routeLength="1978.80" waitSteps="3" rerouteNo="0" devices="vehroute_flow10.2 tripinfo_flow10.2" vType="DEFAULT_VEHTYPE" vaporized=""/>
    <tripinfo id="flow11.2" depart="43.00" departLane="edge-4-5_0" departPos="5.10" departSpeed="0.00" departDelay="3.00" arrival="194.00" arrivalLane="edge-5-3_0" arrivalPos="991.95" arrivalSpeed="14.92" duration="151.00" routeLength="1978.80" waitSteps="0" rerouteNo="0" devices="vehroute_flow11.2 tripinfo_flow11.2" vType="DEFAULT_VEHTYPE" vaporized=""/>
    <tripinfo id="flow4.2" depart="43.00" departLane="edge-2-5_0" departPos="5.10" departSpeed="0.00" departDelay="3.00" arrival="197.00" arrivalLane="edge-5-4_0" arrivalPos="991.95" arrivalSpeed="14.81" duration="154.00" routeLength="1978.80" waitSteps="0" rerouteNo="0" devices="vehroute_flow4.2 tripinfo_flow4.2" vType="DEFAULT_VEHTYPE" vaporized=""/>
    <tripinfo id="flow5.1" depart="26.00" departLane="edge-2-5_0" departPos="5.10" departSpeed="0.00" departDelay="6.00" arrival="198.00" arrivalLane="edge-5-3_1" arrivalPos="991.95" arrivalSpeed="14.22" duration="172.00" routeLength="1978.80" waitSteps="20" rerouteNo="0" devices="vehroute_flow5.1 tripinfo_flow5.1" vType="DEFAULT_VEHTYPE" vaporized=""/>
    <tripinfo id="flow5.2" depart="46.00" departLane="edge-2-5_0" departPos="5.10" departSpeed="0.00" departDelay="6.00" arrival="200.00" arrivalLane="edge-5-3_1" arrivalPos="991.95" arrivalSpeed="13.98" duration="154.00" routeLength="1978.80" waitSteps="2" rerouteNo="0" devices="vehroute_flow5.2 tripinfo_flow5.2" vType="DEFAULT_VEHTYPE" vaporized=""/>
    <tripinfo id="flow8.2" depart="46.00" departLane="edge-3-5_0" departPos="5.10" departSpeed="0.00" departDelay="6.00" arrival="204.00" arrivalLane="edge-5-4_1" arrivalPos="991.95" arrivalSpeed="14.04" duration="158.00" routeLength="1978.80" waitSteps="7" rerouteNo="0" devices="vehroute_flow8.2 tripinfo_flow8.2" vType="DEFAULT_VEHTYPE" vaporized=""/>
    <tripinfo id="flow3.3" depart="60.00" departLane="edge-2-5_0" departPos="5.10" departSpeed="0.00" departDelay="0.00" arrival="206.00" arrivalLane="edge-5-1_0" arrivalPos="991.95" arrivalSpeed="14.56" duration="146.00" routeLength="1978.80" waitSteps="0" rerouteNo="0" devices="vehroute_flow3.3 tripinfo_flow3.3" vType="DEFAULT_VEHTYPE" vaporized=""/>
    <tripinfo id="flow1.3" depart="63.00" departLane="edge-1-5_0" departPos="5.10" departSpeed="0.00" departDelay="3.00" arrival="209.00" arrivalLane="edge-5-3_0" arrivalPos="991.95" arrivalSpeed="14.57" duration="146.00" routeLength="1978.80" waitSteps="0" rerouteNo="0" devices="vehroute_flow1.3 tripinfo_flow1.3" vType="DEFAULT_VEHTYPE" vaporized=""/>
    <tripinfo id="flow2.3" depart="66.00" departLane="edge-1-5_0" departPos="5.10" departSpeed="0.00" departDelay="6.00" arrival="211.00" arrivalLane="edge-5-4_0" arrivalPos="991.95" arrivalSpeed="14.27" duration="145.00" routeLength="1978.80" waitSteps="0" rerouteNo="0" devices="vehroute_flow2.3 tripinfo_flow2.3" vType="DEFAULT_VEHTYPE" vaporized=""/>
    <tripinfo id="flow5.3" depart="66.00" departLane="edge-2-5_0" departPos="5.10" departSpeed="0.00" departDelay="6.00" arrival="215.00" arrivalLane="edge-5-3_1" arrivalPos="991.95" arrivalSpeed="14.80" duration="149.00" routeLength="1978.80" waitSteps="0" rerouteNo="0" devices="vehroute_flow5.3 tripinfo_flow5.3" vType="DEFAULT_VEHTYPE" vaporized=""/>
    <tripinfo id="flow4.3" depart="63.00" departLane="edge-2-5_0" departPos="5.10" departSpeed="0.00" departDelay="3.00" arrival="215.00" arrivalLane="edge-5-4_0" arrivalPos="991.95" arrivalSpeed="14.80" duration="152.00" routeLength="1978.80" waitSteps="3" rerouteNo="0" devices="vehroute_flow4.3 tripinfo_flow4.3" vType="DEFAULT_VEHTYPE" vaporized=""/>
    <tripinfo id="flow10.3" depart="60.00" departLane="edge-4-5_0" departPos="5.10" departSpeed="0.00" departDelay="0.00" arrival="218.00" arrivalLane="edge-5-2_0" arrivalPos="991.95" arrivalSpeed="13.83" duration="158.00" routeLength="1978.80" waitSteps="6" rerouteNo="0" devices="vehroute_flow10.3 tripinfo_flow10.3" vType="DEFAULT_VEHTYPE" vaporized=""/>
    <tripinfo id="flow11.3" depart="63.00" departLane="edge-4-5_0" departPos="5.10" departSpeed="0.00" departDelay="3.00" arrival="219.00" arrivalLane="edge-5-3_0" arrivalPos="991.95" arrivalSpeed="14.57" duration="156.00" routeLength="1978.80" waitSteps="2" rerouteNo="0" devices="vehroute_flow11.3 tripinfo_flow11.3" vType="DEFAULT_VEHTYPE" vaporized=""/>
    <tripinfo id="flow3.4" depart="80.00" departLane="edge-2-5_0" departPos="5.10" departSpeed="0.00" departDelay="0.00" arrival="223.00" arrivalLane="edge-5-1_0" arrivalPos="991.95" arrivalSpeed="14.21" duration="143.00" routeLength="1978.80" waitSteps="0" rerouteNo="0" devices="vehroute_flow3.4 tripinfo_flow3.4" vType="DEFAULT_VEHTYPE" vaporized=""/>
    <tripinfo id="flow0.3" depart="60.00" departLane="edge-1-5_0" departPos="5.10" departSpeed="0.00" departDelay="0.00" arrival="227.00" arrivalLane="edge-5-2_1" arrivalPos="991.95" arrivalSpeed="13.73" duration="167.00" routeLength="1978.80" waitSteps="18" rerouteNo="0" devices="vehroute_flow0.3 tripinfo_flow0.3" vType="DEFAULT_VEHTYPE" vaporized=""/>
    <tripinfo id="flow1.4" depart="83.00" departLane="edge-1-5_0" departPos="5.10" departSpeed="0.00" departDelay="3.00" arrival="229.00" arrivalLane="edge-5-3_0" arrivalPos="991.95" arrivalSpeed="14.08" duration="146.00" routeLength="1978.80" waitSteps="0" rerouteNo="0" devices="vehroute_flow1.4 tripinfo_flow1.4" vType="DEFAULT_VEHTYPE" vaporized=""/>
    <tripinfo id="flow5.4" depart="86.00" departLane="edge-2-5_0" departPos="5.10" departSpeed="0.00" departDelay="6.00" arrival="232.00" arrivalLane="edge-5-3_1" arrivalPos="991.95" arrivalSpeed="14.80" duration="146.00" routeLength="1978.80" waitSteps="0" rerouteNo="0" devices="vehroute_flow5.4 tripinfo_flow5.4" vType="DEFAULT_VEHTYPE" vaporized=""/>
    <tripinfo id="flow2.4" depart="86.00" departLane="edge-1-5_0" departPos="5.10" departSpeed="0.00" departDelay="6.00" arrival="232.00" arrivalLane="edge-5-4_0" arrivalPos="991.95" arrivalSpeed="14.85" duration="146.00" routeLength="1978.80" waitSteps="0" rerouteNo="0" devices="vehroute_flow2.4 tripinfo_flow2.4" vType="DEFAULT_VEHTYPE" vaporized=""/>
    <tripinfo id="flow7.3" depart="63.00" departLane="edge-3-5_0" departPos="5.10" departSpeed="0.00" departDelay="3.00" arrival="235.00" arrivalLane="edge-5-1_1" arrivalPos="991.95" arrivalSpeed="14.39" duration="172.00" routeLength="1978.80" waitSteps="20" rerouteNo="0" devices="vehroute_flow7.3 tripinfo_flow7.3" vType="DEFAULT_VEHTYPE" vaporized=""/>
    <tripinfo id="flow7.2" depart="43.00" departLane="edge-3-5_0" departPos="5.10" departSpeed="0.00" departDelay="3.00" arrival="235.00" arrivalLane="edge-5-1_0" arrivalPos="991.95" arrivalSpeed="13.85" duration="192.00" routeLength="1978.80" waitSteps="41" rerouteNo="0" devices="vehroute_flow7.2 tripinfo_flow7.2" vType="DEFAULT_VEHTYPE" vaporized=""/>
    <tripinfo id="flow6.3" depart="60.00" departLane="edge-3-5_0" departPos="5.10" departSpeed="0.00" departDelay="0.00" arrival="236.00" arrivalLane="edge-5-2_0" arrivalPos="991.95" arrivalSpeed="14.48" duration="176.00" routeLength="1978.80" waitSteps="23" rerouteNo="0" devices="vehroute_flow6.3 tripinfo_flow6.3" vType="DEFAULT_VEHTYPE" vaporized=""/>
    <tripinfo id="flow4.4" depart="83.00" departLane="edge-2-5_0" departPos="5.10" departSpeed="0.00" departDelay="3.00" arrival="239.00" arrivalLane="edge-5-4_0" arrivalPos="991.95" arrivalSpeed="14.43" duration="156.00" routeLength="1978.80" waitSteps="4" rerouteNo="0" devices="vehroute_flow4.4 tripinfo_flow4.4" vType="DEFAULT_VEHTYPE" vaporized=""/>
    <tripinfo id="flow6.4" depart="80.00" departLane="edge-3-5_0" departPos="5.10" departSpeed="0.00" departDelay="0.00" arrival="239.00" arrivalLane="edge-5-2_0" arrivalPos="991.95" arrivalSpeed="14.43" duration="159.00" routeLength="1978.80" waitSteps="7" rerouteNo="0" devices="vehroute_flow6.4 tripinfo_flow6.4" vType="DEFAULT_VEHTYPE" vaporized=""/>
    <tripinfo id="flow8.3" depart="66.00" departLane="edge-3-5_0" departPos="5.10" departSpeed="0.00" departDelay="6.00" arrival="241.00" arrivalLane="edge-5-4_1" arrivalPos="991.95" arrivalSpeed="14.16" duration="175.00" routeLength="1978.80" waitSteps="17" rerouteNo="0" devices="vehroute_flow8.3 tripinfo_flow8.3" vType="DEFAULT_VEHTYPE" vaporized=""/>
    <tripinfo id="flow8.4" depart="86.00" departLane="edge-3-5_0" departPos="5.10" departSpeed="0.00" departDelay="6.00" arrival="244.00" arrivalLane="edge-5-4_1" arrivalPos="991.95" arrivalSpeed="13.74" duration="158.00" routeLength="1978.80" waitSteps="3" rerouteNo="0" devices="vehroute_flow8.4 tripinfo_flow8.4" vType="DEFAULT_VEHTYPE" vaporized=""/>
    <tripinfo id="flow3.5" depart="100.00" departLane="edge-2-5_0" departPos="5.10" departSpeed="0.00" departDelay="0.00" arrival="246.00" arrivalLane="edge-5-1_0" arrivalPos="991.95" arrivalSpeed="14.00" duration="146.00" routeLength="1978.80" waitSteps="0" rerouteNo="0" devices="vehroute_flow3.5 tripinfo_flow3.5" vType="DEFAULT_VEHTYPE" vaporized=""/>
    <tripinfo id="flow1.5" depart="103.00" departLane="edge-1-5_0" departPos="5.10" departSpeed="0.00" departDelay="3.00" arrival="249.00" arrivalLane="edge-5-3_0" arrivalPos="991.95" arrivalSpeed="14.37" duration="146.00" routeLength="1978.80" waitSteps="0" rerouteNo="0" devices="vehroute_flow1.5 tripinfo_flow1.5" vType="DEFAULT_VEHTYPE" vaporized=""/>
    <tripinfo id="flow5.5" depart="106.00" departLane="edge-2-5_0" departPos="5.10" departSpeed="0.00" departDelay="6.00" arrival="251.00" arrivalLane="edge-5-3_1" arrivalPos="991.95" arrivalSpeed="14.45" duration="145.00" routeLength="1978.80" waitSteps="0" rerouteNo="0" devices="vehroute_flow5.5 tripinfo_flow5.5" vType="DEFAULT_VEHTYPE" vaporized=""/>
    <tripinfo id="flow2.5" depart="106.00" departLane="edge-1-5_0" departPos="5.10" departSpeed="0.00" departDelay="6.00" arrival="251.00" arrivalLane="edge-5-4_0" arrivalPos="991.95" arrivalSpeed="14.42" duration="145.00" routeLength="1978.80" waitSteps="0" rerouteNo="0" devices="vehroute_flow2.5 tripinfo_flow2.5" vType="DEFAULT_VEHTYPE" vaporized=""/>
    <tripinfo id="flow7.5" depart="103.00" departLane="edge-3-5_0" departPos="5.10" departSpeed="0.00" departDelay="3.00" arrival="255.00" arrivalLane="edge-5-1_1" arrivalPos="991.95" arrivalSpeed="14.67" duration="152.00" routeLength="1978.80" waitSteps="1" rerouteNo="0" devices="vehroute_flow7.5 tripinfo_flow7.5" vType="DEFAULT_VEHTYPE" vaporized=""/>
    <tripinfo id="flow7.4" depart="83.00" departLane="edge-3-5_0" departPos="5.10" departSpeed="0.00" departDelay="3.00" arrival="255.00" arrivalLane="edge-5-1_0" arrivalPos="991.95" arrivalSpeed="14.40" duration="172.00" routeLength="1978.80" waitSteps="12" rerouteNo="0" devices="vehroute_flow7.4 tripinfo_flow7.4" vType="DEFAULT_VEHTYPE" vaporized=""/>
    <tripinfo id="flow6.5" depart="100.00" departLane="edge-3-5_0" departPos="5.10" departSpeed="0.00" departDelay="0.00" arrival="256.00" arrivalLane="edge-5-2_0" arrivalPos="991.95" arrivalSpeed="14.05" duration="156.00" routeLength="1978.80" waitSteps="6" rerouteNo="0" devices="vehroute_flow6.5 tripinfo_flow6.5" vType="DEFAULT_VEHTYPE" vaporized=""/>
    <tripinfo id="flow8.5" depart="106.00" departLane="edge-3-5_0" departPos="5.10" departSpeed="0.00" departDelay="6.00" arrival="257.00" arrivalLane="edge-5-4_1" arrivalPos="991.95" arrivalSpeed="13.85" duration="151.00" routeLength="1978.80" waitSteps="0" rerouteNo="0" devices="vehroute_flow8.5 tripinfo_flow8.5" vType="DEFAULT_VEHTYPE" vaporized=""/>
    <tripinfo id="flow4.5" depart="103.00" departLane="edge-2-5_0" departPos="5.10" departSpeed="0.00" departDelay="3.00" arrival="259.00" arrivalLane="edge-5-4_0" arrivalPos="991.95" arrivalSpeed="14.94" duration="156.00" routeLength="1978.80" waitSteps="7" rerouteNo="0" devices="vehroute_flow4.5 tripinfo_flow4.5" vType="DEFAULT_VEHTYPE" vaporized=""/>
    <tripinfo id="flow10.4" depart="80.00" departLane="edge-4-5_0" departPos="5.10" departSpeed="0.00" departDelay="0.00" arrival="261.00" arrivalLane="edge-5-2_0" arrivalPos="991.95" arrivalSpeed="13.73" duration="181.00" routeLength="1978.80" waitSteps="29" rerouteNo="0" devices="vehroute_flow10.4 tripinfo_flow10.4" vType="DEFAULT_VEHTYPE" vaporized=""/>
    <tripinfo id="flow11.4" depart="83.00" departLane="edge-4-5_0" departPos="5.10" departSpeed="0.00" departDelay="3.00" arrival="262.00" arrivalLane="edge-5-3_0" arrivalPos="991.95" arrivalSpeed="13.73" duration="179.00" routeLength="1978.80" waitSteps="27" rerouteNo="0" devices="vehroute_flow11.4 tripinfo_flow11.4" vType="DEFAULT_VEHTYPE" vaporized=""/>
    <tripinfo id="flow6.6" depart="120.00" departLane="edge-3-5_0" departPos="5.10" departSpeed="0.00" departDelay="0.00" arrival="265.00" arrivalLane="edge-5-2_0" arrivalPos="991.95" arrivalSpeed="14.13" duration="145.00" routeLength="1978.80" waitSteps="0" rerouteNo="0" devices="vehroute_flow6.6 tripinfo_flow6.6" vType="DEFAULT_VEHTYPE" vaporized=""/>
    <tripinfo id="flow3.6" depart="120.00" departLane="edge-2-5_0" departPos="5.10" departSpeed="0.00" departDelay="0.00" arrival="265.00" arrivalLane="edge-5-1_0" arrivalPos="991.95" arrivalSpeed="14.54" duration="145.00" routeLength="1978.80" waitSteps="0" rerouteNo="0" devices="vehroute_flow3.6 tripinfo_flow3.6" vType="DEFAULT_VEHTYPE" vaporized=""/>
    <tripinfo id="flow1.6" depart="123.00" departLane="edge-1-5_0" departPos="5.10" departSpeed="0.00" departDelay="3.00" arrival="269.00" arrivalLane="edge-5-3_0" arrivalPos="991.95" arrivalSpeed="14.80" duration="146.00" routeLength="1978.80" waitSteps="0" rerouteNo="0" devices="vehroute_flow1.6 tripinfo_flow1.6" vType="DEFAULT_VEHTYPE" vaporized=""/>
    <tripinfo id="flow2.6" depart="126.00" departLane="edge-1-5_0" departPos="5.10" departSpeed="0.00" departDelay="6.00" arrival="272.00" arrivalLane="edge-5-4_0" arrivalPos="991.95" arrivalSpeed="14.02" duration="146.00" routeLength="1978.80" waitSteps="0" rerouteNo="0" devices="vehroute_flow2.6 tripinfo_flow2.6" vType="DEFAULT_VEHTYPE" vaporized=""/>
    <tripinfo id="flow0.4" depart="80.00" departLane="edge-1-5_0" departPos="5.10" departSpeed="0.00" departDelay="0.00" arrival="272.00" arrivalLane="edge-5-2_1" arrivalPos="991.95" arrivalSpeed="13.99" duration="192.00" routeLength="1978.80" waitSteps="39" rerouteNo="0" devices="vehroute_flow0.4 tripinfo_flow0.4" vType="DEFAULT_VEHTYPE" vaporized=""/>
    <tripinfo id="flow10.5" depart="100.00" departLane="edge-4-5_0" departPos="5.10" departSpeed="0.00" departDelay="0.00" arrival="274.00" arrivalLane="edge-5-2_0" arrivalPos="991.95" arrivalSpeed="14.92" duration="174.00" routeLength="1978.80" waitSteps="18" rerouteNo="0" devices="vehroute_flow10.5 tripinfo_flow10.5" vType="DEFAULT_VEHTYPE" vaporized=""/>
    <tripinfo id="flow9.3" depart="66.00" departLane="edge-4-5_0" departPos="5.10" departSpeed="0.00" departDelay="6.00" arrival="275.00" arrivalLane="edge-5-1_1" arrivalPos="991.95" arrivalSpeed="14.22" duration="209.00" routeLength="1978.80" waitSteps="59" rerouteNo="0" devices="vehroute_flow9.3 tripinfo_flow9.3" vType="DEFAULT_VEHTYPE" vaporized=""/>
    <tripinfo id="flow11.5" depart="103.00" departLane="edge-4-5_0" departPos="5.10" departSpeed="0.00" departDelay="3.00" arrival="276.00" arrivalLane="edge-5-3_0" arrivalPos="991.95" arrivalSpeed="14.07" duration="173.00" routeLength="1978.80" waitSteps="15" rerouteNo="0" devices="vehroute_flow11.5 tripinfo_flow11.5" vType="DEFAULT_VEHTYPE" vaporized=""/>
    <tripinfo id="flow8.6" depart="126.00" departLane="edge-3-5_0" departPos="5.10" departSpeed="0.00" departDelay="6.00" arrival="278.00" arrivalLane="edge-5-4_1" arrivalPos="991.95" arrivalSpeed="13.78" duration="152.00" routeLength="1978.80" waitSteps="1" rerouteNo="0" devices="vehroute_flow8.6 tripinfo_flow8.6" vType="DEFAULT_VEHTYPE" vaporized=""/>
    <tripinfo id="flow11.6" depart="123.00" departLane="edge-4-5_0" departPos="5.10" departSpeed="0.00" departDelay="3.00" arrival="279.00" arrivalLane="edge-5-3_0" arrivalPos="991.95" arrivalSpeed="14.65" duration="156.00" routeLength="1978.80" waitSteps="2" rerouteNo="0" devices="vehroute_flow11.6 tripinfo_flow11.6" vType="DEFAULT_VEHTYPE" vaporized=""/>
    <tripinfo id="flow7.6" depart="123.00" departLane="edge-3-5_0" departPos="5.10" departSpeed="0.00" departDelay="3.00" arrival="279.00" arrivalLane="edge-5-1_0" arrivalPos="991.95" arrivalSpeed="14.14" duration="156.00" routeLength="1978.80" waitSteps="5" rerouteNo="0" devices="vehroute_flow7.6 tripinfo_flow7.6" vType="DEFAULT_VEHTYPE" vaporized=""/>
    <tripinfo id="flow9.4" depart="86.00" departLane="edge-4-5_0" departPos="5.10" departSpeed="0.00" departDelay="6.00" arrival="282.00" arrivalLane="edge-5-1_1" arrivalPos="991.95" arrivalSpeed="14.42" duration="196.00" routeLength="1978.80" waitSteps="42" rerouteNo="0" devices="vehroute_flow9.4 tripinfo_flow9.4" vType="DEFAULT_VEHTYPE" vaporized=""/>
    <tripinfo id="flow6.7" depart="140.00" departLane="edge-3-5_0" departPos="5.10" departSpeed="0.00" departDelay="0.00" arrival="284.00" arrivalLane="edge-5-2_0" arrivalPos="991.95" arrivalSpeed="13.98" duration="144.00" routeLength="1978.80" waitSteps="0" rerouteNo="0" devices="vehroute_flow6.7 tripinfo_flow6.7" vType="DEFAULT_VEHTYPE" vaporized=""/>
    <tripinfo id="flow4.6" depart="123.00" departLane="edge-2-5_0" departPos="5.10" departSpeed="0.00" departDelay="3.00" arrival="286.00" arrivalLane="edge-5-4_0" arrivalPos="991.95" arrivalSpeed="14.91" duration="163.00" routeLength="1978.80" waitSteps="13" rerouteNo="0" devices="vehroute_flow4.6 tripinfo_flow4.6" vType="DEFAULT_VEHTYPE" vaporized=""/>
    <tripinfo id="flow3.7" depart="140.00" departLane="edge-2-5_0" departPos="5.10" departSpeed="0.00" departDelay="0.00" arrival="287.00" arrivalLane="edge-5-1_0" arrivalPos="991.95" arrivalSpeed="14.31" duration="147.00" routeLength="1978.80" waitSteps="0" rerouteNo="0" devices="vehroute_flow3.7 tripinfo_flow3.7" vType="DEFAULT_VEHTYPE" vaporized=""/>