<?xml version="1.0" encoding="UTF-8"?>

<!-- generated on Fri 03 Mar 2017 10:55:20 PM CST by SUMO gui Version 0.19.0
<?xml version="1.0" encoding="UTF-8"?>

<configuration xmlns:xsi="http://www.w3.org/2001/XMLSchema-instance" xsi:noNamespaceSchemaLocation="http://sumo-sim.org/xsd/sumo-gui.exeConfiguration.xsd">

    <input>
        <net-file value="/home/zenghaien/SUMO/route3/MySUMONet.net.xml"/>
        <route-files value="/home/zenghaien/SUMO/route3/ex_ROU.rou.xml"/>
    </input>

    <output>
        <netstate-dump value="/home/zenghaien/SUMO/route3/ex_sumo.sumo.tr"/>
        <emission-output value="/home/zenghaien/SUMO/route3/output-emissions.xml"/>
        <tripinfo-output value="/home/zenghaien/SUMO/route3/output-tripinfos.xml"/>
        <vehroute-output value="/home/zenghaien/SUMO/route3/output-vehroutes.xml"/>
        <save-state.prefix value="/home/zenghaien/SUMO/route3/state"/>
    </output>

    <time>
        <begin value="0"/>
        <end value="2000"/>
    </time>

    <processing>
        <route-steps value="-1"/>
        <time-to-teleport value="-1"/>
    </processing>

    <report>
        <print-options value="false"/>
    </report>

    <random_number>
        <seed value="23423"/>
    </random_number>

</configuration>
-->

<routes xmlns:xsi="http://www.w3.org/2001/XMLSchema-instance" xsi:noNamespaceSchemaLocation="http://sumo-sim.org/xsd/routes_file.xsd">
    <vehicle id="flow6.0" depart="0.00" arrival="145.00">
        <route edges="edge-3-5 edge-5-2"/>
    </vehicle>

    <vehicle id="flow3.0" depart="0.00" arrival="145.00">
        <route edges="edge-2-5 edge-5-1"/>
    </vehicle>

    <vehicle id="flow10.0" depart="0.00" arrival="147.00">
        <route edges="edge-4-5 edge-5-2"/>
    </vehicle>

    <vehicle id="flow0.0" depart="0.00" arrival="149.00">
        <route edges="edge-1-5 edge-5-2"/>
    </vehicle>

    <vehicle id="flow1.0" depart="3.00" arrival="149.00">
        <route edges="edge-1-5 edge-5-3"/>
    </vehicle>

    <vehicle id="flow2.0" depart="6.00" arrival="152.00">
        <route edges="edge-1-5 edge-5-4"/>
    </vehicle>

    <vehicle id="flow11.0" depart="3.00" arrival="153.00">
        <route edges="edge-4-5 edge-5-3"/>
    </vehicle>

    <vehicle id="flow4.0" depart="3.00" arrival="155.00">
        <route edges="edge-2-5 edge-5-4"/>
    </vehicle>

    <vehicle id="flow5.0" depart="6.00" arrival="156.00">
        <route edges="edge-2-5 edge-5-3"/>
    </vehicle>

    <vehicle id="flow7.0" depart="3.00" arrival="158.00">
        <route edges="edge-3-5 edge-5-1"/>
    </vehicle>

    <vehicle id="flow8.0" depart="6.00" arrival="159.00">
        <route edges="edge-3-5 edge-5-4"/>
    </vehicle>

    <vehicle id="flow6.1" depart="20.00" arrival="165.00">
        <route edges="edge-3-5 edge-5-2"/>
    </vehicle>

    <vehicle id="flow3.1" depart="20.00" arrival="165.00">
        <route edges="edge-2-5 edge-5-1"/>
    </vehicle>

    <vehicle id="flow9.0" depart="6.00" arrival="169.00">
        <route edges="edge-4-5 edge-5-1"/>
    </vehicle>

    <vehicle id="flow1.1" depart="23.00" arrival="170.00">
        <route edges="edge-1-5 edge-5-3"/>
    </vehicle>

    <vehicle id="flow0.1" depart="20.00" arrival="172.00">
        <route edges="edge-1-5 edge-5-2"/>
    </vehicle>

    <vehicle id="flow2.1" depart="26.00" arrival="173.00">
        <route edges="edge-1-5 edge-5-4"/>
    </vehicle>

    <vehicle id="flow9.1" depart="26.00" arrival="175.00">
        <route edges="edge-4-5 edge-5-1"/>
    </vehicle>

    <vehicle id="flow10.1" depart="20.00" arrival="175.00">
        <route edges="edge-4-5 edge-5-2"/>
    </vehicle>

    <vehicle id="flow11.1" depart="23.00" arrival="176.00">
        <route edges="edge-4-5 edge-5-3"/>
    </vehicle>

    <vehicle id="flow8.1" depart="26.00" arrival="179.00">
        <route edges="edge-3-5 edge-5-4"/>
    </vehicle>

    <vehicle id="flow7.1" depart="23.00" arrival="179.00">
        <route edges="edge-3-5 edge-5-1"/>
    </vehicle>

    <vehicle id="flow6.2" depart="40.00" arrival="185.00">
        <route edges="edge-3-5 edge-5-2"/>
    </vehicle>

    <vehicle id="flow4.1" depart="23.00" arrival="186.00">
        <route edges="edge-2-5 edge-5-4"/>
    </vehicle>

    <vehicle id="flow3.2" depart="40.00" arrival="187.00">
        <route edges="edge-2-5 edge-5-1"/>
    </vehicle>

    <vehicle id="flow1.2" depart="43.00" arrival="188.00">
        <route edges="edge-1-5 edge-5-3"/>
    </vehicle>

    <vehicle id="flow0.2" depart="40.00" arrival="190.00">
        <route edges="edge-1-5 edge-5-2"/>
    </vehicle>

    <vehicle id="flow2.2" depart="46.00" arrival="191.00">
        <route edges="edge-1-5 edge-5-4"/>
    </vehicle>

    <vehicle id="flow9.2" depart="46.00" arrival="193.00">
        <route edges="edge-4-5 edge-5-1"/>
    </vehicle>

    <vehicle id="flow10.2" depart="40.00" arrival="193.00">
        <route edges="edge-4-5 edge-5-2"/>
    </vehicle>

    <vehicle id="flow11.2" depart="43.00" arrival="194.00">
        <route edges="edge-4-5 edge-5-3"/>
    </vehicle>

    <vehicle id="flow4.2" depart="43.00" arrival="197.00">
        <route edges="edge-2-5 edge-5-4"/>
    </vehicle>

    <vehicle id="flow5.1" depart="26.00" arrival="198.00">
        <route edges="edge-2-5 edge-5-3"/>
    </vehicle>

    <vehicle id="flow5.2" depart="46.00" arrival="200.00">
        <route edges="edge-2-5 edge-5-3"/>
    </vehicle>

    <vehicle id="flow8.2" depart="46.00" arrival="204.00">
        <route edges="edge-3-5 edge-5-4"/>
    </vehicle>

    <vehicle id="flow3.3" depart="60.00" arrival="206.00">
        <route edges="edge-2-5 edge-5-1"/>
    </vehicle>

    <vehicle id="flow1.3" depart="63.00" arrival="209.00">
        <route edges="edge-1-5 edge-5-3"/>
    </vehicle>

    <vehicle id="flow2.3" depart="66.00" arrival="211.00">
        <route edges="edge-1-5 edge-5-4"/>
    </vehicle>

    <vehicle id="flow5.3" depart="66.00" arrival="215.00">
        <route edges="edge-2-5 edge-5-3"/>
    </vehicle>

    <vehicle id="flow4.3" depart="63.00" arrival="215.00">
        <route edges="edge-2-5 edge-5-4"/>
    </vehicle>

    <vehicle id="flow10.3" depart="60.00" arrival="218.00">
        <route edges="edge-4-5 edge-5-2"/>
    </vehicle>

    <vehicle id="flow11.3" depart="63.00" arrival="219.00">
        <route edges="edge-4-5 edge-5-3"/>
    </vehicle>

    <vehicle id="flow3.4" depart="80.00" arrival="223.00">
        <route edges="edge-2-5 edge-5-1"/>
    </vehicle>

    <vehicle id="flow0.3" depart="60.00" arrival="227.00">
        <route edges="edge-1-5 edge-5-2"/>
    </vehicle>

    <vehicle id="flow1.4" depart="83.00" arrival="229.00">
        <route edges="edge-1-5 edge-5-3"/>
    </vehicle>

    <vehicle id="flow5.4" depart="86.00" arrival="232.00">
        <route edges="edge-2-5 edge-5-3"/>
    </vehicle>

    <vehicle id="flow2.4" depart="86.00" arrival="232.00">
        <route edges="edge-1-5 edge-5-4"/>
    </vehicle>

    <vehicle id="flow7.3" depart="63.00" arrival="235.00">
        <route edges="edge-3-5 edge-5-1"/>
    </vehicle>

    <vehicle id="flow7.2" depart="43.00" arrival="235.00">
        <route edges="edge-3-5 edge-5-1"/>
    </vehicle>

    <vehicle id="flow6.3" depart="60.00" arrival="236.00">
        <route edges="edge-3-5 edge-5-2"/>
    </vehicle>

    <vehicle id="flow4.4" depart="83.00" arrival="239.00">
        <route edges="edge-2-5 edge-5-4"/>
    </vehicle>

    <vehicle id="flow6.4" depart="80.00" arrival="239.00">
        <route edges="edge-3-5 edge-5-2"/>
    </vehicle>

    <vehicle id="flow8.3" depart="66.00" arrival="241.00">
        <route edges="edge-3-5 edge-5-4"/>
    </vehicle>

    <vehicle id="flow8.4" depart="86.00" arrival="244.00">
        <route edges="edge-3-5 edge-5-4"/>
    </vehicle>

    <vehicle id="flow3.5" depart="100.00" arrival="246.00">
        <route edges="edge-2-5 edge-5-1"/>
    </vehicle>

    <vehicle id="flow1.5" depart="103.00" arrival="249.00">
        <route edges="edge-1-5 edge-5-3"/>
    </vehicle>

    <vehicle id="flow5.5" depart="106.00" arrival="251.00">
        <route edges="edge-2-5 edge-5-3"/>
    </vehicle>

    <vehicle id="flow2.5" depart="106.00" arrival="251.00">
        <route edges="edge-1-5 edge-5-4"/>
    </vehicle>

    <vehicle id="flow7.5" depart="103.00" arrival="255.00">
        <route edges="edge-3-5 edge-5-1"/>
    </vehicle>

    <vehicle id="flow7.4" depart="83.00" arrival="255.00">
        <route edges="edge-3-5 edge-5-1"/>
    </vehicle>

    <vehicle id="flow6.5" depart="100.00" arrival="256.00">
        <route edges="edge-3-5 edge-5-2"/>
    </vehicle>

    <vehicle id="flow8.5" depart="106.00" arrival="257.00">
        <route edges="edge-3-5 edge-5-4"/>
    </vehicle>

    <vehicle id="flow4.5" depart="103.00" arrival="259.00">
        <route edges="edge-2-5 edge-5-4"/>
    </vehicle>

    <vehicle id="flow10.4" depart="80.00" arrival="261.00">
        <route edges="edge-4-5 edge-5-2"/>
    </vehicle>

    <vehicle id="flow11.4" depart="83.00" arrival="262.00">
        <route edges="edge-4-5 edge-5-3"/>
    </vehicle>

    <vehicle id="flow6.6" depart="120.00" arrival="265.00">
        <route edges="edge-3-5 edge-5-2"/>
    </vehicle>

    <vehicle id="flow3.6" depart="120.00" arrival="265.00">
        <route edges="edge-2-5 edge-5-1"/>
    </vehicle>

    <vehicle id="flow1.6" depart="123.00" arrival="269.00">
        <route edges="edge-1-5 edge-5-3"/>
    </vehicle>

    <vehicle id="flow2.6" depart="126.00" arrival="272.00">
        <route edges="edge-1-5 edge-5-4"/>
    </vehicle>

    <vehicle id="flow0.4" depart="80.00" arrival="272.00">
        <route edges="edge-1-5 edge-5-2"/>
    </vehicle>

    <vehicle id="flow10.5" depart="100.00" arrival="274.00">
        <route edges="edge-4-5 edge-5-2"/>
    </vehicle>

    <vehicle id="flow9.3" depart="66.00" arrival="275.00">
        <route edges="edge-4-5 edge-5-1"/>
    </vehicle>

    <vehicle id="flow11.5" depart="103.00" arrival="276.00">
        <route edges="edge-4-5 edge-5-3"/>
    </vehicle>

    <vehicle id="flow8.6" depart="126.00" arrival="278.00">
        <route edges="edge-3-5 edge-5-4"/>
    </vehicle>

    <vehicle id="flow11.6" depart="123.00" arrival="279.00">
        <route edges="edge-4-5 edge-5-3"/>
    </vehicle>

    <vehicle id="flow7.6" depart="123.00" arrival="279.00">
        <route edges="edge-3-5 edge-5-1"/>
    </vehicle>

    <vehicle id="flow9.4" depart="86.00" arrival="282.00">
        <route edges="edge-4-5 edge-5-1"/>
    </vehicle>

    <vehicle id="flow6.7" depart="140.00" arrival="284.00">
        <route edges="edge-3-5 edge-5-2"/>
    </vehicle>

    <vehicle id="flow4.6" depart="123.00" arrival="286.00">
        <route edges="edge-2-5 edge-5-4"/>
    </vehicle>

    <vehicle id="flow3.7" depart="140.00" arrival="287.00">
        <route edges="edge-2-5 edge-5-1"/>
    </vehicle>

    <vehicle id="flow5.6" depart="126.00" arrival="288.00">
        <route edges="edge-2-5 edge-5-3"/>
    </vehicle>

    <vehicle id="flow1.7" depart="143.00" arrival="289.00">
        <route edges="edge-1-5 edge-5-3"/>
    </vehicle>

    <vehicle id="flow7.7" depart="143.00" arrival="290.00">
        <route edges="edge-3-5 edge-5-1"/>
    </vehicle>

    <vehicle id="flow2.7" depart="146.00" arrival="292.00">
        <route edges="edge-1-5 edge-5-4"/>
    </vehicle>

    <vehicle id="flow0.5" depart="100.00" arrival="293.00">
        <route edges="edge-1-5 edge-5-2"/>
    </vehicle>

    <vehicle id="flow9.5" depart="106.00" arrival="295.00">
        <route edges="edge-4-5 edge-5-1"/>
    </vehicle>

    <vehicle id="flow10.6" depart="120.00" arrival="295.00">
        <route edges="edge-4-5 edge-5-2"/>
    </vehicle>

    <vehicle id="flow8.7" depart="146.00" arrival="298.00">
        <route edges="edge-3-5 edge-5-4"/>
    </vehicle>

    <vehicle id="flow0.6" depart="120.00" arrival="298.00">
        <route edges="edge-1-5 edge-5-2"/>
    </vehicle>

    <vehicle id="flow4.7" depart="143.00" arrival="301.00">
        <route edges="edge-2-5 edge-5-4"/>
    </vehicle>

    <vehicle id="flow6.8" depart="160.00" arrival="305.00">
        <route edges="edge-3-5 edge-5-2"/>
    </vehicle>

    <vehicle id="flow5.7" depart="146.00" arrival="306.00">
        <route edges="edge-2-5 edge-5-3"/>
    </vehicle>

    <vehicle id="flow3.8" depart="160.00" arrival="306.00">
        <route edges="edge-2-5 edge-5-1"/>
    </vehicle>

    <vehicle id="flow1.8" depart="163.00" arrival="310.00">
        <route edges="edge-1-5 edge-5-3"/>
    </vehicle>

    <vehicle id="flow0.7" depart="140.00" arrival="311.00">
        <route edges="edge-1-5 edge-5-2"/>
    </vehicle>

    <vehicle id="flow2.8" depart="166.00" arrival="312.00">
        <route edges="edge-1-5 edge-5-4"/>
    </vehicle>

    <vehicle id="flow10.7" depart="140.00" arrival="314.00">
        <route edges="edge-4-5 edge-5-2"/>
    </vehicle>

    <vehicle id="flow9.6" depart="126.00" arrival="315.00">
        <route edges="edge-4-5 edge-5-1"/>
    </vehicle>

    <vehicle id="flow11.7" depart="143.00" arrival="315.00">
        <route edges="edge-4-5 edge-5-3"/>
    </vehicle>

    <vehicle id="flow4.8" depart="163.00" arrival="318.00">
        <route edges="edge-2-5 edge-5-4"/>
    </vehicle>

    <vehicle id="flow3.9" depart="180.00" arrival="325.00">
        <route edges="edge-2-5 edge-5-1"/>
    </vehicle>

    <vehicle id="flow0.8" depart="160.00" arrival="326.00">
        <route edges="edge-1-5 edge-5-2"/>
    </vehicle>

    <vehicle id="flow0.9" depart="180.00" arrival="328.00">
        <route edges="edge-1-5 edge-5-2"/>
    </vehicle>

    <vehicle id="flow1.9" depart="183.00" arrival="329.00">
        <route edges="edge-1-5 edge-5-3"/>
    </vehicle>

    <vehicle id="flow2.9" depart="186.00" arrival="331.00">
        <route edges="edge-1-5 edge-5-4"/>
    </vehicle>

    <vehicle id="flow5.8" depart="166.00" arrival="332.00">
        <route edges="edge-2-5 edge-5-3"/>
    </vehicle>

    <vehicle id="flow7.8" depart="163.00" arrival="334.00">
        <route edges="edge-3-5 edge-5-1"/>
    </vehicle>

    <vehicle id="flow6.9" depart="180.00" arrival="336.00">
        <route edges="edge-3-5 edge-5-2"/>
    </vehicle>

    <vehicle id="flow5.9" depart="186.00" arrival="338.00">
        <route edges="edge-2-5 edge-5-3"/>
    </vehicle>

    <vehicle id="flow4.9" depart="183.00" arrival="339.00">
        <route edges="edge-2-5 edge-5-4"/>
    </vehicle>

    <vehicle id="flow8.8" depart="166.00" arrival="340.00">
        <route edges="edge-3-5 edge-5-4"/>
    </vehicle>

    <vehicle id="flow7.9" depart="183.00" arrival="340.00">
        <route edges="edge-3-5 edge-5-1"/>
    </vehicle>

    <vehicle id="flow8.9" depart="186.00" arrival="342.00">
        <route edges="edge-3-5 edge-5-4"/>
    </vehicle>

    <vehicle id="flow3.10" depart="200.00" arrival="345.00">
        <route edges="edge-2-5 edge-5-1"/>
    </vehicle>

    <vehicle id="flow6.10" depart="200.00" arrival="346.00">
        <route edges="edge-3-5 edge-5-2"/>
    </vehicle>

    <vehicle id="flow1.10" depart="203.00" arrival="350.00">
        <route edges="edge-1-5 edge-5-3"/>
    </vehicle>

    <vehicle id="flow0.10" depart="200.00" arrival="351.00">
        <route edges="edge-1-5 edge-5-2"/>
    </vehicle>

    <vehicle id="flow2.10" depart="206.00" arrival="352.00">
        <route edges="edge-1-5 edge-5-4"/>
    </vehicle>

    <vehicle id="flow10.8" depart="160.00" arrival="354.00">
        <route edges="edge-4-5 edge-5-2"/>
    </vehicle>

    <vehicle id="flow9.7" depart="146.00" arrival="355.00">
        <route edges="edge-4-5 edge-5-1"/>
    </vehicle>

    <vehicle id="flow11.8" depart="163.00" arrival="356.00">
        <route edges="edge-4-5 edge-5-3"/>
    </vehicle>

    <vehicle id="flow5.10" depart="206.00" arrival="359.00">
        <route edges="edge-2-5 edge-5-3"/>
    </vehicle>

    <vehicle id="flow4.10" depart="203.00" arrival="359.00">
        <route edges="edge-2-5 edge-5-4"/>
    </vehicle>

    <vehicle id="flow9.8" depart="166.00" arrival="360.00">
        <route edges="edge-4-5 edge-5-1"/>
    </vehicle>

    <vehicle id="flow8.10" depart="206.00" arrival="364.00">
        <route edges="edge-3-5 edge-5-4"/>
    </vehicle>

    <vehicle id="flow3.11" depart="220.00" arrival="366.00">
        <route edges="edge-2-5 edge-5-1"/>
    </vehicle>

    <vehicle id="flow1.11" depart="223.00" arrival="370.00">
        <route edges="edge-1-5 edge-5-3"/>
    </vehicle>

    <vehicle id="flow7.11" depart="223.00" arrival="372.00">
        <route edges="edge-3-5 edge-5-1"/>
    </vehicle>

    <vehicle id="flow2.11" depart="226.00" arrival="372.00">
        <route edges="edge-1-5 edge-5-4"/>
    </vehicle>

    <vehicle id="flow7.10" depart="203.00" arrival="372.00">
        <route edges="edge-3-5 edge-5-1"/>
    </vehicle>

    <vehicle id="flow6.11" depart="220.00" arrival="373.00">
        <route edges="edge-3-5 edge-5-2"/>
    </vehicle>

    <vehicle id="flow9.9" depart="186.00" arrival="375.00">
        <route edges="edge-4-5 edge-5-1"/>
    </vehicle>

    <vehicle id="flow5.11" depart="226.00" arrival="376.00">
        <route edges="edge-2-5 edge-5-3"/>
    </vehicle>

    <vehicle id="flow4.11" depart="223.00" arrival="378.00">
        <route edges="edge-2-5 edge-5-4"/>
    </vehicle>

    <vehicle id="flow8.11" depart="226.00" arrival="381.00">
        <route edges="edge-3-5 edge-5-4"/>
    </vehicle>

    <vehicle id="flow6.12" depart="240.00" arrival="385.00">
        <route edges="edge-3-5 edge-5-2"/>
    </vehicle>

    <vehicle id="flow3.12" depart="240.00" arrival="385.00">
        <route edges="edge-2-5 edge-5-1"/>
    </vehicle>

    <vehicle id="flow1.12" depart="243.00" arrival="388.00">
        <route edges="edge-1-5 edge-5-3"/>
    </vehicle>

    <vehicle id="flow2.12" depart="246.00" arrival="390.00">
        <route edges="edge-1-5 edge-5-4"/>
    </vehicle>

    <vehicle id="flow0.11" depart="220.00" arrival="391.00">
        <route edges="edge-1-5 edge-5-2"/>
    </vehicle>

    <vehicle id="flow10.9" depart="180.00" arrival="394.00">
        <route edges="edge-4-5 edge-5-2"/>
    </vehicle>

    <vehicle id="flow10.10" depart="200.00" arrival="395.00">
        <route edges="edge-4-5 edge-5-2"/>
    </vehicle>

    <vehicle id="flow11.9" depart="183.00" arrival="395.00">
        <route edges="edge-4-5 edge-5-3"/>
    </vehicle>

    <vehicle id="flow0.12" depart="240.00" arrival="397.00">
        <route edges="edge-1-5 edge-5-2"/>
    </vehicle>

    <vehicle id="flow8.12" depart="246.00" arrival="398.00">
        <route edges="edge-3-5 edge-5-4"/>
    </vehicle>

    <vehicle id="flow11.10" depart="203.00" arrival="398.00">
        <route edges="edge-4-5 edge-5-3"/>
    </vehicle>

    <vehicle id="flow4.12" depart="243.00" arrival="402.00">
        <route edges="edge-2-5 edge-5-4"/>
    </vehicle>

    <vehicle id="flow3.13" depart="260.00" arrival="405.00">
        <route edges="edge-2-5 edge-5-1"/>
    </vehicle>

    <vehicle id="flow1.13" depart="263.00" arrival="409.00">
        <route edges="edge-1-5 edge-5-3"/>
    </vehicle>

    <vehicle id="flow2.13" depart="266.00" arrival="412.00">
        <route edges="edge-1-5 edge-5-4"/>
    </vehicle>

    <vehicle id="flow5.12" depart="246.00" arrival="413.00">
        <route edges="edge-2-5 edge-5-3"/>
    </vehicle>

    <vehicle id="flow9.10" depart="206.00" arrival="415.00">
        <route edges="edge-4-5 edge-5-1"/>
    </vehicle>

    <vehicle id="flow5.13" depart="266.00" arrival="418.00">
        <route edges="edge-2-5 edge-5-3"/>
    </vehicle>

    <vehicle id="flow4.13" depart="263.00" arrival="419.00">
        <route edges="edge-2-5 edge-5-4"/>
    </vehicle>

    <vehicle id="flow7.13" depart="263.00" arrival="422.00">
        <route edges="edge-3-5 edge-5-1"/>
    </vehicle>

    <vehicle id="flow8.13" depart="266.00" arrival="424.00">
        <route edges="edge-3-5 edge-5-4"/>
    </vehicle>

    <vehicle id="flow3.14" depart="280.00" arrival="426.00">
        <route edges="edge-2-5 edge-5-1"/>
    </vehicle>

    <vehicle id="flow1.14" depart="283.00" arrival="429.00">
        <route edges="edge-1-5 edge-5-3"/>
    </vehicle>

    <vehicle id="flow2.14" depart="286.00" arrival="430.00">
        <route edges="edge-1-5 edge-5-4"/>
    </vehicle>

    <vehicle id="flow5.14" depart="286.00" arrival="432.00">
        <route edges="edge-2-5 edge-5-3"/>
    </vehicle>

    <vehicle id="flow4.14" depart="283.00" arrival="434.00">
        <route edges="edge-2-5 edge-5-4"/>
    </vehicle>

    <vehicle id="flow7.14" depart="283.00" arrival="436.00">
        <route edges="edge-3-5 edge-5-1"/>
    </vehicle>

    <vehicle id="flow7.12" depart="242.00" arrival="436.00">
        <route edges="edge-3-5 edge-5-1"/>
    </vehicle>

    <vehicle id="flow6.13" depart="260.00" arrival="437.00">
        <route edges="edge-3-5 edge-5-2"/>
    </vehicle>

    <vehicle id="flow8.14" depart="286.00" arrival="438.00">
        <route edges="edge-3-5 edge-5-4"/>
    </vehicle>

    <vehicle id="flow6.14" depart="280.00" arrival="440.00">
        <route edges="edge-3-5 edge-5-2"/>
    </vehicle>

    <vehicle id="flow9.11" depart="226.00" arrival="442.00">
        <route edges="edge-4-5 edge-5-1"/>
    </vehicle>

    <vehicle id="flow6.15" depart="300.00" arrival="445.00">
        <route edges="edge-3-5 edge-5-2"/>
    </vehicle>

    <vehicle id="flow3.15" depart="300.00" arrival="445.00">
        <route edges="edge-2-5 edge-5-1"/>
    </vehicle>

    <vehicle id="flow1.15" depart="303.00" arrival="450.00">
        <route edges="edge-1-5 edge-5-3"/>
    </vehicle>

    <vehicle id="flow0.13" depart="260.00" arrival="451.00">
        <route edges="edge-1-5 edge-5-2"/>
    </vehicle>

    <vehicle id="flow2.15" depart="306.00" arrival="452.00">
        <route edges="edge-1-5 edge-5-4"/>
    </vehicle>

    <vehicle id="flow0.14" depart="280.00" arrival="453.00">
        <route edges="edge-1-5 edge-5-2"/>
    </vehicle>

    <vehicle id="flow0.15" depart="300.00" arrival="455.00">
        <route edges="edge-1-5 edge-5-2"/>
    </vehicle>

    <vehicle id="flow8.15" depart="306.00" arrival="458.00">
        <route edges="edge-3-5 edge-5-4"/>
    </vehicle>

    <vehicle id="flow4.15" depart="303.00" arrival="460.00">
        <route edges="edge-2-5 edge-5-4"/>
    </vehicle>

    <vehicle id="flow10.12" depart="240.00" arrival="461.00">
        <route edges="edge-4-5 edge-5-2"/>
    </vehicle>

    <vehicle id="flow10.11" depart="220.00" arrival="461.00">
        <route edges="edge-4-5 edge-5-2"/>
    </vehicle>

    <vehicle id="flow11.11" depart="223.00" arrival="463.00">
        <route edges="edge-4-5 edge-5-3"/>
    </vehicle>

    <vehicle id="flow11.12" depart="243.00" arrival="465.00">
        <route edges="edge-4-5 edge-5-3"/>
    </vehicle>

    <vehicle id="flow3.16" depart="320.00" arrival="466.00">
        <route edges="edge-2-5 edge-5-1"/>
    </vehicle>

    <vehicle id="flow11.13" depart="263.00" arrival="468.00">
        <route edges="edge-4-5 edge-5-3"/>
    </vehicle>

    <vehicle id="flow4.16" depart="323.00" arrival="471.00">
        <route edges="edge-2-5 edge-5-4"/>
    </vehicle>

    <vehicle id="flow5.15" depart="306.00" arrival="472.00">
        <route edges="edge-2-5 edge-5-3"/>
    </vehicle>

    <vehicle id="flow7.16" depart="323.00" arrival="474.00">
        <route edges="edge-3-5 edge-5-1"/>
    </vehicle>

    <vehicle id="flow7.15" depart="303.00" arrival="474.00">
        <route edges="edge-3-5 edge-5-1"/>
    </vehicle>

    <vehicle id="flow6.16" depart="320.00" arrival="475.00">
        <route edges="edge-3-5 edge-5-2"/>
    </vehicle>

    <vehicle id="flow1.16" depart="323.00" arrival="476.00">
        <route edges="edge-1-5 edge-5-3"/>
    </vehicle>

    <vehicle id="flow2.16" depart="326.00" arrival="477.00">
        <route edges="edge-1-5 edge-5-4"/>
    </vehicle>

    <vehicle id="flow5.16" depart="326.00" arrival="478.00">
        <route edges="edge-2-5 edge-5-3"/>
    </vehicle>

    <vehicle id="flow9.12" depart="246.00" arrival="480.00">
        <route edges="edge-4-5 edge-5-1"/>
    </vehicle>

    <vehicle id="flow8.16" depart="326.00" arrival="482.00">
        <route edges="edge-3-5 edge-5-4"/>
    </vehicle>

    <vehicle id="flow6.17" depart="340.00" arrival="484.00">
        <route edges="edge-3-5 edge-5-2"/>
    </vehicle>

    <vehicle id="flow3.17" depart="340.00" arrival="485.00">
        <route edges="edge-2-5 edge-5-1"/>
    </vehicle>

    <vehicle id="flow1.17" depart="343.00" arrival="488.00">
        <route edges="edge-1-5 edge-5-3"/>
    </vehicle>

    <vehicle id="flow2.17" depart="346.00" arrival="491.00">
        <route edges="edge-1-5 edge-5-4"/>
    </vehicle>

    <vehicle id="flow0.16" depart="320.00" arrival="492.00">
        <route edges="edge-1-5 edge-5-2"/>
    </vehicle>

    <vehicle id="flow4.17" depart="343.00" arrival="495.00">
        <route edges="edge-2-5 edge-5-4"/>
    </vehicle>

    <vehicle id="flow10.13" depart="260.00" arrival="495.00">
        <route edges="edge-4-5 edge-5-2"/>
    </vehicle>

    <vehicle id="flow11.14" depart="283.00" arrival="496.00">
        <route edges="edge-4-5 edge-5-3"/>
    </vehicle>

    <vehicle id="flow8.17" depart="346.00" arrival="498.00">
        <route edges="edge-3-5 edge-5-4"/>
    </vehicle>

    <vehicle id="flow7.17" depart="343.00" arrival="499.00">
        <route edges="edge-3-5 edge-5-1"/>
    </vehicle>

    <vehicle id="flow10.15" depart="300.00" arrival="500.00">
        <route edges="edge-4-5 edge-5-2"/>
    </vehicle>

    <vehicle id="flow11.15" depart="302.00" arrival="502.00">
        <route edges="edge-4-5 edge-5-3"/>
    </vehicle>

    <vehicle id="flow11.16" depart="323.00" arrival="505.00">
        <route edges="edge-4-5 edge-5-3"/>
    </vehicle>

    <vehicle id="flow6.18" depart="360.00" arrival="505.00">
        <route edges="edge-3-5 edge-5-2"/>
    </vehicle>

    <vehicle id="flow3.18" depart="360.00" arrival="505.00">
        <route edges="edge-2-5 edge-5-1"/>
    </vehicle>

    <vehicle id="flow5.17" depart="346.00" arrival="508.00">
        <route edges="edge-2-5 edge-5-3"/>
    </vehicle>

    <vehicle id="flow1.18" depart="363.00" arrival="511.00">
        <route edges="edge-1-5 edge-5-3"/>
    </vehicle>

    <vehicle id="flow2.18" depart="366.00" arrival="513.00">
        <route edges="edge-1-5 edge-5-4"/>
    </vehicle>

    <vehicle id="flow0.17" depart="340.00" arrival="513.00">
        <route edges="edge-1-5 edge-5-2"/>
    </vehicle>

    <vehicle id="flow0.18" depart="360.00" arrival="516.00">
        <route edges="edge-1-5 edge-5-2"/>
    </vehicle>

    <vehicle id="flow8.18" depart="366.00" arrival="518.00">
        <route edges="edge-3-5 edge-5-4"/>
    </vehicle>

    <vehicle id="flow4.18" depart="363.00" arrival="520.00">
        <route edges="edge-2-5 edge-5-4"/>
    </vehicle>

    <vehicle id="flow3.19" depart="380.00" arrival="525.00">
        <route edges="edge-2-5 edge-5-1"/>
    </vehicle>

    <vehicle id="flow1.19" depart="383.00" arrival="529.00">
        <route edges="edge-1-5 edge-5-3"/>
    </vehicle>

    <vehicle id="flow2.19" depart="386.00" arrival="531.00">
        <route edges="edge-1-5 edge-5-4"/>
    </vehicle>

    <vehicle id="flow5.18" depart="366.00" arrival="534.00">
        <route edges="edge-2-5 edge-5-3"/>
    </vehicle>

    <vehicle id="flow4.19" depart="383.00" arrival="535.00">
        <route edges="edge-2-5 edge-5-4"/>
    </vehicle>

    <vehicle id="flow5.19" depart="386.00" arrival="536.00">
        <route edges="edge-2-5 edge-5-3"/>
    </vehicle>

    <vehicle id="flow9.13" depart="266.00" arrival="538.00">
        <route edges="edge-4-5 edge-5-1"/>
    </vehicle>

    <vehicle id="flow7.18" depart="363.00" arrival="541.00">
        <route edges="edge-3-5 edge-5-1"/>
    </vehicle>

    <vehicle id="flow6.19" depart="380.00" arrival="542.00">
        <route edges="edge-3-5 edge-5-2"/>
    </vehicle>

    <vehicle id="flow6.20" depart="400.00" arrival="546.00">
        <route edges="edge-3-5 edge-5-2"/>
    </vehicle>

    <vehicle id="flow3.20" depart="400.00" arrival="546.00">
        <route edges="edge-2-5 edge-5-1"/>
    </vehicle>

    <vehicle id="flow1.20" depart="403.00" arrival="549.00">
        <route edges="edge-1-5 edge-5-3"/>
    </vehicle>

    <vehicle id="flow2.20" depart="406.00" arrival="551.00">
        <route edges="edge-1-5 edge-5-4"/>
    </vehicle>

    <vehicle id="flow5.20" depart="406.00" arrival="555.00">
        <route edges="edge-2-5 edge-5-3"/>
    </vehicle>

    <vehicle id="flow4.20" depart="403.00" arrival="555.00">
        <route edges="edge-2-5 edge-5-4"/>
    </vehicle>

    <vehicle id="flow10.14" depart="280.00" arrival="558.00">
        <route edges="edge-4-5 edge-5-2"/>
    </vehicle>

    <vehicle id="flow10.17" depart="340.00" arrival="559.00">
        <route edges="edge-4-5 edge-5-2"/>
    </vehicle>

    <vehicle id="flow11.17" depart="343.00" arrival="560.00">
        <route edges="edge-4-5 edge-5-3"/>
    </vehicle>

    <vehicle id="flow3.21" depart="420.00" arrival="565.00">
        <route edges="edge-2-5 edge-5-1"/>
    </vehicle>

    <vehicle id="flow10.18" depart="360.00" arrival="568.00">
        <route edges="edge-4-5 edge-5-2"/>
    </vehicle>

    <vehicle id="flow4.21" depart="423.00" arrival="569.00">
        <route edges="edge-2-5 edge-5-4"/>
    </vehicle>

    <vehicle id="flow11.18" depart="363.00" arrival="569.00">
        <route edges="edge-4-5 edge-5-3"/>
    </vehicle>

    <vehicle id="flow9.14" depart="286.00" arrival="575.00">
        <route edges="edge-4-5 edge-5-1"/>
    </vehicle>

    <vehicle id="flow5.21" depart="426.00" arrival="575.00">
        <route edges="edge-2-5 edge-5-3"/>
    </vehicle>

    <vehicle id="flow10.19" depart="380.00" arrival="579.00">
        <route edges="edge-4-5 edge-5-2"/>
    </vehicle>

    <vehicle id="flow2.21" depart="426.00" arrival="580.00">