<?xml version="1.0" encoding="UTF-8"?>

<!-- generated on Wed Dec  7 20:52:04 2016 by SUMO Version 0.25.0
<?xml version="1.0" encoding="UTF-8"?>

<configuration xmlns:xsi="http://www.w3.org/2001/XMLSchema-instance" xsi:noNamespaceSchemaLocation="http://sumo.dlr.de/xsd/sumoConfiguration.xsd">

    <input>
        <net-file value="input.net.xml"/>
        <route-files value="input.rou.xml"/>
    </input>

    <output>
        <fcd-output value="input.fcd.xml"/>
    </output>

</configuration>
-->

<fcd-export xmlns:xsi="http://www.w3.org/2001/XMLSchema-instance" xsi:noNamespaceSchemaLocation="http://sumo.dlr.de/xsd/fcd_file.xsd">
    <timestep time="0.00"/>
    <timestep time="1.00">
        <vehicle id="100" x="4.40" y="998.35" angle="90.00" type="passenger" speed="11.33" pos="4.40" lane="edge1_2" slope="0.00"/>
    </timestep>
    <timestep time="2.00">
        <vehicle id="100" x="18.56" y="998.35" angle="90.00" type="passenger" speed="14.16" pos="18.56" lane="edge1_2" slope="0.00"/>
    </timestep>
    <timestep time="3.00">
        <vehicle id="0" x="4.40" y="998.35" angle="90.00" type="passenger" speed="10.46" pos="4.40" lane="edge1_2" slope="0.00"/>
        <vehicle id="100" x="33.75" y="998.35" angle="90.00" type="passenger" speed="15.19" pos="33.75" lane="edge1_2" slope="0.00"/>
    </timestep>
    <timestep time="4.00">
        <vehicle id="0" x="16.97" y="998.35" angle="90.00" type="passenger" speed="12.57" pos="16.97" lane="edge1_2" slope="0.00"/>
        <vehicle id="1" x="4.40" y="995.05" angle="90.00" type="passenger" speed="7.07" pos="4.40" lane="edge1_1" slope="0.00"/>
        <vehicle id="100" x="49.29" y="998.35" angle="90.00" type="passenger" speed="15.54" pos="49.29" lane="edge1_2" slope="0.00"/>
    </timestep>
    <timestep time="5.00">
        <vehicle id="0" x="30.66" y="998.35" angle="90.00" type="passenger" speed="13.69" pos="30.66" lane="edge1_2" slope="0.00"/>
        <vehicle id="1" x="13.71" y="995.05" angle="90.00" type="passenger" speed="9.31" pos="13.71" lane="edge1_1" slope="0.00"/>
        <vehicle id="100" x="64.37" y="998.35" angle="90.00" type="passenger" speed="15.08" pos="64.37" lane="edge1_2" slope="0.00"/>
        <vehicle id="2" x="4.40" y="995.05" angle="90.00" type="passenger" speed="4.32" pos="4.40" lane="edge1_1" slope="0.00"/>
    </timestep>
    <timestep time="6.00">
        <vehicle id="0" x="43.99" y="998.35" angle="90.00" type="passenger" speed="13.33" pos="43.99" lane="edge1_2" slope="0.00"/>
        <vehicle id="1" x="25.45" y="995.05" angle="90.00" type="passenger" speed="11.74" pos="25.45" lane="edge1_1" slope="0.00"/>
        <vehicle id="100" x="80.20" y="998.35" angle="90.00" type="passenger" speed="15.83" pos="80.20" lane="edge1_2" slope="0.00"/>
        <vehicle id="2" x="7.73" y="995.05" angle="90.00" type="passenger" speed="3.33" pos="7.73" lane="edge1_1" slope="0.00"/>
    </timestep>
    <timestep time="7.00">
        <vehicle id="0" x="56.87" y="998.35" angle="90.00" type="passenger" speed="12.88" pos="56.87" lane="edge1_2" slope="0.00"/>
        <vehicle id="1" x="39.65" y="995.05" angle="90.00" type="passenger" speed="14.20" pos="39.65" lane="edge1_1" slope="0.00"/>
        <vehicle id="100" x="94.74" y="995.05" angle="90.00" type="passenger" speed="14.54" pos="94.74" lane="edge1_1" slope="0.00"/>
        <vehicle id="2" x="13.04" y="995.05" angle="90.00" type="passenger" speed="5.31" pos="13.04" lane="edge1_1" slope="0.00"/>
    </timestep>
    <timestep time="8.00">
        <vehicle id="0" x="70.60" y="998.35" angle="90.00" type="passenger" speed="13.73" pos="70.60" lane="edge1_2" slope="0.00"/>
        <vehicle id="1" x="54.23" y="995.05" angle="90.00" type="passenger" speed="14.58" pos="54.23" lane="edge1_1" slope="0.00"/>
        <vehicle id="100" x="109.35" y="995.05" angle="90.00" type="passenger" speed="14.61" pos="109.35" lane="edge1_1" slope="0.00"/>
        <vehicle id="101" x="4.40" y="995.05" angle="90.00" type="passenger" speed="4.66" pos="4.40" lane="edge1_1" slope="0.00"/>
        <vehicle id="2" x="20.45" y="995.05" angle="90.00" type="passenger" speed="7.42" pos="20.45" lane="edge1_1" slope="0.00"/>
    </timestep>
    <timestep time="9.00">
        <vehicle id="0" x="83.68" y="998.35" angle="90.00" type="passenger" speed="13.08" pos="83.68" lane="edge1_2" slope="0.00"/>
        <vehicle id="1" x="69.16" y="995.05" angle="90.00" type="passenger" speed="14.93" pos="69.16" lane="edge1_1" slope="0.00"/>
        <vehicle id="100" x="124.14" y="995.05" angle="90.00" type="passenger" speed="14.79" pos="124.14" lane="edge1_1" slope="0.00"/>
        <vehicle id="101" x="11.92" y="995.05" angle="90.00" type="passenger" speed="7.52" pos="11.92" lane="edge1_1" slope="0.00"/>
        <vehicle id="2" x="29.39" y="995.05" angle="90.00" type="passenger" speed="8.93" pos="29.39" lane="edge1_1" slope="0.00"/>
        <vehicle id="50" x="4.40" y="998.35" angle="90.00" type="passenger" speed="1.61" pos="4.40" lane="edge1_2" slope="0.00"/>
    </timestep>
    <timestep time="10.00">
        <vehicle id="0" x="97.44" y="998.35" angle="90.00" type="passenger" speed="13.75" pos="97.44" lane="edge1_2" slope="0.00"/>
        <vehicle id="1" x="83.72" y="991.75" angle="90.00" type="passenger" speed="14.56" pos="83.72" lane="edge1_0" slope="0.00"/>
        <vehicle id="100" x="139.86" y="995.05" angle="90.00" type="passenger" speed="15.72" pos="139.86" lane="edge1_1" slope="0.00"/>
        <vehicle id="101" x="21.34" y="995.05" angle="90.00" type="passenger" speed="9.42" pos="21.34" lane="edge1_1" slope="0.00"/>
        <vehicle id="2" x="39.82" y="995.05" angle="90.00" type="passenger" speed="10.43" pos="39.82" lane="edge1_1" slope="0.00"/>
        <vehicle id="3" x="4.40" y="995.05" angle="90.00" type="passenger" speed="3.79" pos="4.40" lane="edge1_1" slope="0.00"/>
        <vehicle id="50" x="8.67" y="998.35" angle="90.00" type="passenger" speed="4.27" pos="8.67" lane="edge1_2" slope="0.00"/>
    </timestep>
    <timestep time="11.00">
        <vehicle id="0" x="110.12" y="995.05" angle="90.00" type="passenger" speed="12.68" pos="110.12" lane="edge1_1" slope="0.00"/>
        <vehicle id="1" x="97.90" y="991.75" angle="90.00" type="passenger" speed="14.19" pos="97.90" lane="edge1_0" slope="0.00"/>
        <vehicle id="100" x="154.72" y="995.05" angle="90.00" type="passenger" speed="14.86" pos="154.72" lane="edge1_1" slope="0.00"/>
        <vehicle id="101" x="31.39" y="995.05" angle="90.00" type="passenger" speed="10.06" pos="31.39" lane="edge1_1" slope="0.00"/>
        <vehicle id="2" x="52.29" y="995.05" angle="90.00" type="passenger" speed="12.47" pos="52.29" lane="edge1_1" slope="0.00"/>
        <vehicle id="3" x="9.73" y="995.05" angle="90.00" type="passenger" speed="5.33" pos="9.73" lane="edge1_1" slope="0.00"/>
        <vehicle id="50" x="15.39" y="998.35" angle="90.00" type="passenger" speed="6.72" pos="15.39" lane="edge1_2" slope="0.00"/>
    </timestep>
    <timestep time="12.00">
        <vehicle id="0" x="123.93" y="995.05" angle="90.00" type="passenger" speed="13.81" pos="123.93" lane="edge1_1" slope="0.00"/>
        <vehicle id="1" x="112.81" y="991.75" angle="90.00" type="passenger" speed="14.91" pos="112.81" lane="edge1_0" slope="0.00"/>
        <vehicle id="100" x="169.24" y="995.05" angle="90.00" type="passenger" speed="14.52" pos="169.24" lane="edge1_1" slope="0.00"/>
        <vehicle id="101" x="44.13" y="995.05" angle="90.00" type="passenger" speed="12.74" pos="44.13" lane="edge1_1" slope="0.00"/>
        <vehicle id="102" x="4.40" y="995.05" angle="90.00" type="passenger" speed="7.41" pos="4.40" lane="edge1_1" slope="0.00"/>
        <vehicle id="2" x="66.73" y="991.75" angle="90.00" type="passenger" speed="14.44" pos="66.73" lane="edge1_0" slope="0.00"/>
        <vehicle id="3" x="17.92" y="995.05" angle="90.00" type="passenger" speed="8.19" pos="17.92" lane="edge1_1" slope="0.00"/>
        <vehicle id="50" x="24.61" y="998.35" angle="90.00" type="passenger" speed="9.22" pos="24.61" lane="edge1_2" slope="0.00"/>
    </timestep>
    <timestep time="13.00">
        <vehicle id="0" x="137.88" y="995.05" angle="90.00" type="passenger" speed="13.95" pos="137.88" lane="edge1_1" slope="0.00"/>
        <vehicle id="1" x="126.53" y="991.75" angle="90.00" type="passenger" speed="13.72" pos="126.53" lane="edge1_0" slope="0.00"/>
        <vehicle id="100" x="184.65" y="991.75" angle="90.00" type="passenger" speed="15.41" pos="184.65" lane="edge1_0" slope="0.00"/>
        <vehicle id="101" x="58.76" y="995.05" angle="90.00" type="passenger" speed="14.63" pos="58.76" lane="edge1_1" slope="0.00"/>
        <vehicle id="102" x="11.55" y="995.05" angle="90.00" type="passenger" speed="7.15" pos="11.55" lane="edge1_1" slope="0.00"/>
        <vehicle id="2" x="82.51" y="991.75" angle="90.00" type="passenger" speed="15.78" pos="82.51" lane="edge1_0" slope="0.00"/>
        <vehicle id="3" x="28.71" y="995.05" angle="90.00" type="passenger" speed="10.79" pos="28.71" lane="edge1_1" slope="0.00"/>
        <vehicle id="50" x="36.66" y="998.35" angle="90.00" type="passenger" speed="12.05" pos="36.66" lane="edge1_2" slope="0.00"/>
        <vehicle id="51" x="4.40" y="998.35" angle="90.00" type="passenger" speed="4.95" pos="4.40" lane="edge1_2" slope="0.00"/>
    </timestep>
    <timestep time="14.00">
        <vehicle id="0" x="151.21" y="995.05" angle="90.00" type="passenger" speed="13.33" pos="151.21" lane="edge1_1" slope="0.00"/>
        <vehicle id="1" x="140.80" y="991.75" angle="90.00" type="passenger" speed="14.26" pos="140.80" lane="edge1_0" slope="0.00"/>
        <vehicle id="100" x="199.93" y="991.75" angle="90.00" type="passenger" speed="15.29" pos="199.93" lane="edge1_0" slope="0.00"/>
        <vehicle id="101" x="73.02" y="995.05" angle="90.00" type="passenger" speed="14.26" pos="73.02" lane="edge1_1" slope="0.00"/>
        <vehicle id="102" x="20.99" y="995.05" angle="90.00" type="passenger" speed="9.44" pos="20.99" lane="edge1_1" slope="0.00"/>
        <vehicle id="2" x="98.19" y="991.75" angle="90.00" type="passenger" speed="15.67" pos="98.19" lane="edge1_0" slope="0.00"/>
        <vehicle id="3" x="41.55" y="995.05" angle="90.00" type="passenger" speed="12.84" pos="41.55" lane="edge1_1" slope="0.00"/>
        <vehicle id="50" x="48.60" y="998.35" angle="90.00" type="passenger" speed="11.94" pos="48.60" lane="edge1_2" slope="0.00"/>
        <vehicle id="51" x="10.83" y="998.35" angle="90.00" type="passenger" speed="6.43" pos="10.83" lane="edge1_2" slope="0.00"/>
    </timestep>
    <timestep time="15.00">
        <vehicle id="0" x="163.94" y="995.05" angle="90.00" type="passenger" speed="12.73" pos="163.94" lane="edge1_1" slope="0.00"/>
        <vehicle id="1" x="154.68" y="991.75" angle="90.00" type="passenger" speed="13.89" pos="154.68" lane="edge1_0" slope="0.00"/>
        <vehicle id="100" x="215.68" y="991.75" angle="90.00" type="passenger" speed="15.75" pos="215.68" lane="edge1_0" slope="0.00"/>
        <vehicle id="101" x="87.76" y="991.75" angle="90.00" type="passenger" speed="14.74" pos="87.76" lane="edge1_0" slope="0.00"/>
        <vehicle id="102" x="32.31" y="995.05" angle="90.00" type="passenger" speed="11.31" pos="32.31" lane="edge1_1" slope="0.00"/>
        <vehicle id="103" x="4.40" y="991.75" angle="90.00" type="passenger" speed="6.73" pos="4.40" lane="edge1_0" slope="0.00"/>
        <vehicle id="2" x="113.52" y="991.75" angle="90.00" type="passenger" speed="15.33" pos="113.52" lane="edge1_0" slope="0.00"/>
        <vehicle id="3" x="56.62" y="995.05" angle="90.00" type="passenger" speed="15.07" pos="56.62" lane="edge1_1" slope="0.00"/>
        <vehicle id="4" x="4.40" y="998.35" angle="90.00" type="passenger" speed="7.88" pos="4.40" lane="edge1_2" slope="0.00"/>
        <vehicle id="50" x="60.40" y="998.35" angle="90.00" type="passenger" speed="11.80" pos="60.40" lane="edge1_2" slope="0.00"/>
        <vehicle id="51" x="18.90" y="998.35" angle="90.00" type="passenger" speed="8.07" pos="18.90" lane="edge1_2" slope="0.00"/>
    </timestep>
    <timestep time="16.00">
        <vehicle id="0" x="176.98" y="995.05" angle="90.00" type="passenger" speed="13.04" pos="176.98" lane="edge1_1" slope="0.00"/>
        <vehicle id="1" x="169.16" y="991.75" angle="90.00" type="passenger" speed="14.48" pos="169.16" lane="edge1_0" slope="0.00"/>
        <vehicle id="100" x="231.43" y="991.75" angle="90.00" type="passenger" speed="15.75" pos="231.43" lane="edge1_0" slope="0.00"/>
        <vehicle id="101" x="102.08" y="991.75" angle="90.00" type="passenger" speed="14.32" pos="102.08" lane="edge1_0" slope="0.00"/>
        <vehicle id="102" x="44.56" y="995.05" angle="90.00" type="passenger" speed="12.26" pos="44.56" lane="edge1_1" slope="0.00"/>
        <vehicle id="103" x="13.62" y="991.75" angle="90.00" type="passenger" speed="9.22" pos="13.62" lane="edge1_0" slope="0.00"/>
        <vehicle id="2" x="128.80" y="991.75" angle="90.00" type="passenger" speed="15.28" pos="128.80" lane="edge1_0" slope="0.00"/>
        <vehicle id="3" x="72.13" y="995.05" angle="90.00" type="passenger" speed="15.51" pos="72.13" lane="edge1_1" slope="0.00"/>
        <vehicle id="4" x="11.74" y="995.05" angle="90.00" type="passenger" speed="7.34" pos="11.74" lane="edge1_1" slope="0.00"/>
        <vehicle id="50" x="72.66" y="998.35" angle="90.00" type="passenger" speed="12.26" pos="72.66" lane="edge1_2" slope="0.00"/>
        <vehicle id="51" x="28.59" y="998.35" angle="90.00" type="passenger" speed="9.69" pos="28.59" lane="edge1_2" slope="0.00"/>
        <vehicle id="52" x="4.40" y="998.35" angle="90.00" type="passenger" speed="6.01" pos="4.40" lane="edge1_2" slope="0.00"/>
        <vehicle id="53" x="4.40" y="995.05" angle="90.00" type="passenger" speed="0.54" pos="4.40" lane="edge1_1" slope="0.00"/>
        <vehicle id="54" x="4.40" y="991.75" angle="90.00" type="passenger" speed="4.13" pos="4.40" lane="edge1_0" slope="0.00"/>
    </timestep>
    <timestep time="17.00">
        <vehicle id="0" x="189.82" y="995.05" angle="90.00" type="passenger" speed="12.83" pos="189.82" lane="edge1_1" slope="0.00"/>
        <vehicle id="1" x="183.77" y="991.75" angle="90.00" type="passenger" speed="14.61" pos="183.77" lane="edge1_0" slope="0.00"/>
        <vehicle id="100" x="246.93" y="991.75" angle="90.00" type="passenger" speed="15.50" pos="246.93" lane="edge1_0" slope="0.00"/>
        <vehicle id="101" x="116.67" y="991.75" angle="90.00" type="passenger" speed="14.60" pos="116.67" lane="edge1_0" slope="0.00"/>
        <vehicle id="102" x="56.66" y="995.05" angle="90.00" type="passenger" speed="12.10" pos="56.66" lane="edge1_1" slope="0.00"/>
        <vehicle id="103" x="24.90" y="991.75" angle="90.00" type="passenger" speed="11.29" pos="24.90" lane="edge1_0" slope="0.00"/>
        <vehicle id="2" x="144.05" y="991.75" angle="90.00" type="passenger" speed="15.25" pos="144.05" lane="edge1_0" slope="0.00"/>
        <vehicle id="3" x="86.89" y="995.05" angle="90.00" type="passenger" speed="14.76" pos="86.89" lane="edge1_1" slope="0.00"/>
        <vehicle id="4" x="20.62" y="995.05" angle="90.00" type="passenger" speed="8.87" pos="20.62" lane="edge1_1" slope="0.00"/>
        <vehicle id="50" x="85.11" y="998.35" angle="90.00" type="passenger" speed="12.44" pos="85.11" lane="edge1_2" slope="0.00"/>
        <vehicle id="51" x="39.75" y="998.35" angle="90.00" type="passenger" speed="11.17" pos="39.75" lane="edge1_2" slope="0.00"/>
        <vehicle id="52" x="12.03" y="998.35" angle="90.00" type="passenger" speed="7.63" pos="12.03" lane="edge1_2" slope="0.00"/>
        <vehicle id="53" x="4.79" y="995.05" angle="90.00" type="passenger" speed="0.39" pos="4.79" lane="edge1_1" slope="0.00"/>
        <vehicle id="54" x="8.38" y="991.75" angle="90.00" type="passenger" speed="3.98" pos="8.38" lane="edge1_0" slope="0.00"/>
    </timestep>
    <timestep time="18.00">
        <vehicle id="0" x="203.41" y="995.05" angle="90.00" type="passenger" speed="13.60" pos="203.41" lane="edge1_1" slope="0.00"/>
        <vehicle id="1" x="198.42" y="991.75" angle="90.00" type="passenger" speed="14.65" pos="198.42" lane="edge1_0" slope="0.00"/>
        <vehicle id="100" x="262.59" y="991.75" angle="90.00" type="passenger" speed="15.66" pos="262.59" lane="edge1_0" slope="0.00"/>
        <vehicle id="101" x="131.45" y="991.75" angle="90.00" type="passenger" speed="14.77" pos="131.45" lane="edge1_0" slope="0.00"/>
        <vehicle id="102" x="69.93" y="991.75" angle="90.00" type="passenger" speed="13.27" pos="69.93" lane="edge1_0" slope="0.00"/>
        <vehicle id="103" x="38.60" y="991.75" angle="90.00" type="passenger" speed="13.69" pos="38.60" lane="edge1_0" slope="0.00"/>
        <vehicle id="2" x="159.14" y="991.75" angle="90.00" type="passenger" speed="15.08" pos="159.14" lane="edge1_0" slope="0.00"/>
        <vehicle id="3" x="101.24" y="995.05" angle="90.00" type="passenger" speed="14.36" pos="101.24" lane="edge1_1" slope="0.00"/>
        <vehicle id="4" x="31.69" y="995.05" angle="90.00" type="passenger" speed="11.07" pos="31.69" lane="edge1_1" slope="0.00"/>
        <vehicle id="50" x="96.98" y="998.35" angle="90.00" type="passenger" speed="11.87" pos="96.98" lane="edge1_2" slope="0.00"/>
        <vehicle id="51" x="53.65" y="998.35" angle="90.00" type="passenger" speed="13.90" pos="53.65" lane="edge1_2" slope="0.00"/>
        <vehicle id="52" x="21.32" y="998.35" angle="90.00" type="passenger" speed="9.29" pos="21.32" lane="edge1_2" slope="0.00"/>
        <vehicle id="53" x="6.77" y="995.05" angle="90.00" type="passenger" speed="1.98" pos="6.77" lane="edge1_1" slope="0.00"/>
        <vehicle id="54" x="15.27" y="991.75" angle="90.00" type="passenger" speed="6.88" pos="15.27" lane="edge1_0" slope="0.00"/>
    </timestep>
    <timestep time="19.00">
        <vehicle id="0" x="217.34" y="995.05" angle="90.00" type="passenger" speed="13.92" pos="217.34" lane="edge1_1" slope="0.00"/>
        <vehicle id="1" x="212.87" y="991.75" angle="90.00" type="passenger" speed="14.45" pos="212.87" lane="edge1_0" slope="0.00"/>
        <vehicle id="100" x="277.04" y="991.75" angle="90.00" type="passenger" speed="14.45" pos="277.04" lane="edge1_0" slope="0.00"/>
        <vehicle id="101" x="145.76" y="991.75" angle="90.00" type="passenger" speed="14.32" pos="145.76" lane="edge1_0" slope="0.00"/>
        <vehicle id="102" x="82.55" y="991.75" angle="90.00" type="passenger" speed="12.62" pos="82.55" lane="edge1_0" slope="0.00"/>
        <vehicle id="103" x="53.74" y="991.75" angle="90.00" type="passenger" speed="15.14" pos="53.74" lane="edge1_0" slope="0.00"/>
        <vehicle id="2" x="174.02" y="991.75" angle="90.00" type="passenger" speed="14.88" pos="174.02" lane="edge1_0" slope="0.00"/>
        <vehicle id="3" x="116.71" y="995.05" angle="90.00" type="passenger" speed="15.46" pos="116.71" lane="edge1_1" slope="0.00"/>
        <vehicle id="4" x="43.89" y="995.05" angle="90.00" type="passenger" speed="12.21" pos="43.89" lane="edge1_1" slope="0.00"/>
        <vehicle id="50" x="108.39" y="998.35" angle="90.00" type="passenger" speed="11.42" pos="108.39" lane="edge1_2" slope="0.00"/>
        <vehicle id="51" x="67.08" y="998.35" angle="90.00" type="passenger" speed="13.42" pos="67.08" lane="edge1_2" slope="0.00"/>
        <vehicle id="52" x="32.98" y="998.35" angle="90.00" type="passenger" speed="11.66" pos="32.98" lane="edge1_2" slope="0.00"/>
        <vehicle id="53" x="11.18" y="995.05" angle="90.00" type="passenger" speed="4.41" pos="11.18" lane="edge1_1" slope="0.00"/>
        <vehicle id="54" x="24.57" y="991.75" angle="90.00" type="passenger" speed="9.30" pos="24.57" lane="edge1_0" slope="0.00"/>
    </timestep>
    <timestep time="20.00">
        <vehicle id="0" x="231.27" y="995.05" angle="90.00" type="passenger" speed="13.93" pos="231.27" lane="edge1_1" slope="0.00"/>
        <vehicle id="1" x="227.84" y="991.75" angle="90.00" type="passenger" speed="14.97" pos="227.84" lane="edge1_0" slope="0.00"/>
        <vehicle id="100" x="292.10" y="991.75" angle="90.00" type="passenger" speed="15.06" pos="292.10" lane="edge1_0" slope="0.00"/>
        <vehicle id="101" x="161.05" y="991.75" angle="90.00" type="passenger" speed="15.29" pos="161.05" lane="edge1_0" slope="0.00"/>
        <vehicle id="102" x="95.70" y="991.75" angle="90.00" type="passenger" speed="13.15" pos="95.70" lane="edge1_0" slope="0.00"/>
        <vehicle id="103" x="69.77" y="991.75" angle="90.00" type="passenger" speed="16.03" pos="69.77" lane="edge1_0" slope="0.00"/>
        <vehicle id="2" x="189.11" y="991.75" angle="90.00" type="passenger" speed="15.10" pos="189.11" lane="edge1_0" slope="0.00"/>
        <vehicle id="3" x="131.06" y="991.75" angle="90.00" type="passenger" speed="14.35" pos="131.06" lane="edge1_0" slope="0.00"/>
        <vehicle id="4" x="56.28" y="995.05" angle="90.00" type="passenger" speed="12.39" pos="56.28" lane="edge1_1" slope="0.00"/>
        <vehicle id="50" x="119.63" y="995.05" angle="90.00" type="passenger" speed="11.23" pos="119.63" lane="edge1_1" slope="0.00"/>
        <vehicle id="51" x="80.47" y="998.35" angle="90.00" type="passenger" speed="13.39" pos="80.47" lane="edge1_2" slope="0.00"/>
        <vehicle id="52" x="47.27" y="998.35" angle="90.00" type="passenger" speed="14.29" pos="47.27" lane="edge1_2" slope="0.00"/>
        <vehicle id="53" x="18.12" y="995.05" angle="90.00" type="passenger" speed="6.94" pos="18.12" lane="edge1_1" slope="0.00"/>
        <vehicle id="54" x="36.44" y="991.75" angle="90.00" type="passenger" speed="11.87" pos="36.44" lane="edge1_0" slope="0.00"/>
        <vehicle id="55" x="4.40" y="995.05" angle="90.00" type="passenger" speed="6.92" pos="4.40" lane="edge1_1" slope="0.00"/>
    </timestep>
    <timestep time="21.00">
        <vehicle id="0" x="244.80" y="995.05" angle="90.00" type="passenger" speed="13.53" pos="244.80" lane="edge1_1" slope="0.00"/>
        <vehicle id="1" x="241.66" y="991.75" angle="90.00" type="passenger" speed="13.82" pos="241.66" lane="edge1_0" slope="0.00"/>
        <vehicle id="100" x="307.68" y="991.75" angle="90.00" type="passenger" speed="15.58" pos="307.68" lane="edge1_0" slope="0.00"/>
        <vehicle id="101" x="175.36" y="991.75" angle="90.00" type="passenger" speed="14.30" pos="175.36" lane="edge1_0" slope="0.00"/>
        <vehicle id="102" x="108.87" y="991.75" angle="90.00" type="passenger" speed="13.17" pos="108.87" lane="edge1_0" slope="0.00"/>
        <vehicle id="103" x="84.70" y="991.75" angle="90.00" type="passenger" speed="14.93" pos="84.70" lane="edge1_0" slope="0.00"/>
        <vehicle id="2" x="204.53" y="991.75" angle="90.00" type="passenger" speed="15.42" pos="204.53" lane="edge1_0" slope="0.00"/>
        <vehicle id="3" x="146.16" y="991.75" angle="90.00" type="passenger" speed="15.10" pos="146.16" lane="edge1_0" slope="0.00"/>
        <vehicle id="4" x="68.17" y="995.05" angle="90.00" type="passenger" speed="11.89" pos="68.17" lane="edge1_1" slope="0.00"/>
        <vehicle id="50" x="131.02" y="995.05" angle="90.00" type="passenger" speed="11.39" pos="131.02" lane="edge1_1" slope="0.00"/>
        <vehicle id="51" x="94.53" y="998.35" angle="90.00" type="passenger" speed="14.06" pos="94.53" lane="edge1_2" slope="0.00"/>
        <vehicle id="52" x="61.81" y="998.35" angle="90.00" type="passenger" speed="14.54" pos="61.81" lane="edge1_2" slope="0.00"/>
        <vehicle id="53" x="27.79" y="995.05" angle="90.00" type="passenger" speed="9.67" pos="27.79" lane="edge1_1" slope="0.00"/>
        <vehicle id="54" x="51.16" y="991.75" angle="90.00" type="passenger" speed="14.72" pos="51.16" lane="edge1_0" slope="0.00"/>
        <vehicle id="55" x="10.66" y="995.05" angle="90.00" type="passenger" speed="6.26" pos="10.66" lane="edge1_1" slope="0.00"/>
        <vehicle id="56" x="4.40" y="991.75" angle="90.00" type="passenger" speed="5.98" pos="4.40" lane="edge1_0" slope="0.00"/>
    </timestep>
    <timestep time="22.00">
        <vehicle id="0" x="258.46" y="995.05" angle="90.00" type="passenger" speed="13.65" pos="258.46" lane="edge1_1" slope="0.00"/>
        <vehicle id="1" x="255.75" y="991.75" angle="90.00" type="passenger" speed="14.08" pos="255.75" lane="edge1_0" slope="0.00"/>
        <vehicle id="100" x="322.43" y="991.75" angle="90.00" type="passenger" speed="14.75" pos="322.43" lane="edge1_0" slope="0.00"/>
        <vehicle id="101" x="190.54" y="991.75" angle="90.00" type="passenger" speed="15.18" pos="190.54" lane="edge1_0" slope="0.00"/>
        <vehicle id="102" x="121.59" y="991.75" angle="90.00" type="passenger" speed="12.72" pos="121.59" lane="edge1_0" slope="0.00"/>
        <vehicle id="103" x="99.72" y="995.05" angle="90.00" type="passenger" speed="15.02" pos="99.72" lane="edge1_1" slope="0.00"/>
        <vehicle id="2" x="219.89" y="991.75" angle="90.00" type="passenger" speed="15.36" pos="219.89" lane="edge1_0" slope="0.00"/>
        <vehicle id="3" x="160.43" y="991.75" angle="90.00" type="passenger" speed="14.26" pos="160.43" lane="edge1_0" slope="0.00"/>
        <vehicle id="4" x="80.23" y="995.05" angle="90.00" type="passenger" speed="12.06" pos="80.23" lane="edge1_1" slope="0.00"/>
        <vehicle id="50" x="143.15" y="995.05" angle="90.00" type="passenger" speed="12.13" pos="143.15" lane="edge1_1" slope="0.00"/>
        <vehicle id="51" x="108.27" y="998.35" angle="90.00" type="passenger" speed="13.75" pos="108.27" lane="edge1_2" slope="0.00"/>
        <vehicle id="52" x="75.88" y="998.35" angle="90.00" type="passenger" speed="14.07" pos="75.88" lane="edge1_2" slope="0.00"/>
        <vehicle id="53" x="38.99" y="995.05" angle="90.00" type="passenger" speed="11.20" pos="38.99" lane="edge1_1" slope="0.00"/>
        <vehicle id="54" x="67.24" y="991.75" angle="90.00" type="passenger" speed="16.08" pos="67.24" lane="edge1_0" slope="0.00"/>
        <vehicle id="55" x="18.50" y="995.05" angle="90.00" type="passenger" speed="7.85" pos="18.50" lane="edge1_1" slope="0.00"/>
        <vehicle id="56" x="13.27" y="991.75" angle="90.00" type="passenger" speed="8.87" pos="13.27" lane="edge1_0" slope="0.00"/>
    </timestep>
    <timestep time="23.00">
        <vehicle id="0" x="272.31" y="995.05" angle="90.00" type="passenger" speed="13.85" pos="272.31" lane="edge1_1" slope="0.00"/>
        <vehicle id="1" x="270.63" y="991.75" angle="90.00" type="passenger" speed="14.88" pos="270.63" lane="edge1_0" slope="0.00"/>
        <vehicle id="100" x="338.00" y="991.75" angle="90.00" type="passenger" speed="15.56" pos="338.00" lane="edge1_0" slope="0.00"/>
        <vehicle id="101" x="205.61" y="991.75" angle="90.00" type="passenger" speed="15.07" pos="205.61" lane="edge1_0" slope="0.00"/>
        <vehicle id="102" x="134.44" y="991.75" angle="90.00" type="passenger" speed="12.85" pos="134.44" lane="edge1_0" slope="0.00"/>
        <vehicle id="103" x="115.55" y="995.05" angle="90.00" type="passenger" speed="15.83" pos="115.55" lane="edge1_1" slope="0.00"/>
        <vehicle id="2" x="235.63" y="991.75" angle="90.00" type="passenger" speed="15.74" pos="235.63" lane="edge1_0" slope="0.00"/>
        <vehicle id="3" x="175.47" y="991.75" angle="90.00" type="passenger" speed="15.04" pos="175.47" lane="edge1_0" slope="0.00"/>
        <vehicle id="4" x="93.07" y="995.05" angle="90.00" type="passenger" speed="12.83" pos="93.07" lane="edge1_1" slope="0.00"/>
        <vehicle id="50" x="154.25" y="995.05" angle="90.00" type="passenger" speed="11.11" pos="154.25" lane="edge1_1" slope="0.00"/>
        <vehicle id="51" x="122.27" y="998.35" angle="90.00" type="passenger" speed="14.00" pos="122.27" lane="edge1_2" slope="0.00"/>
        <vehicle id="52" x="91.22" y="998.35" angle="90.00" type="passenger" speed="15.35" pos="91.22" lane="edge1_2" slope="0.00"/>
        <vehicle id="53" x="52.79" y="995.05" angle="90.00" type="passenger" speed="13.80" pos="52.79" lane="edge1_1" slope="0.00"/>
        <vehicle id="54" x="82.98" y="991.75" angle="90.00" type="passenger" speed="15.74" pos="82.98" lane="edge1_0" slope="0.00"/>
        <vehicle id="55" x="28.41" y="995.05" angle="90.00" type="passenger" speed="9.91" pos="28.41" lane="edge1_1" slope="0.00"/>
        <vehicle id="56" x="23.83" y="991.75" angle="90.00" type="passenger" speed="10.56" pos="23.83" lane="edge1_0" slope="0.00"/>
    </timestep>
    <timestep time="24.00">
        <vehicle id="0" x="285.96" y="995.05" angle="90.00" type="passenger" speed="13.65" pos="285.96" lane="edge1_1" slope="0.00"/>
        <vehicle id="1" x="284.46" y="991.75" angle="90.00" type="passenger" speed="13.82" pos="284.46" lane="edge1_0" slope="0.00"/>
        <vehicle id="100" x="353.85" y="991.75" angle="90.00" type="passenger" speed="15.85" pos="353.85" lane="edge1_0" slope="0.00"/>
        <vehicle id="101" x="220.56" y="991.75" angle="90.00" type="passenger" speed="14.96" pos="220.56" lane="edge1_0" slope="0.00"/>
        <vehicle id="102" x="147.67" y="991.75" angle="90.00" type="passenger" speed="13.23" pos="147.67" lane="edge1_0" slope="0.00"/>
        <vehicle id="103" x="131.22" y="995.05" angle="90.00" type="passenger" speed="15.67" pos="131.22" lane="edge1_1" slope="0.00"/>
        <vehicle id="104" x="4.40" y="998.35" angle="90.00" type="passenger" speed="3.87" pos="4.40" lane="edge1_2" slope="0.00"/>
        <vehicle id="2" x="251.58" y="991.75" angle="90.00" type="passenger" speed="15.95" pos="251.58" lane="edge1_0" slope="0.00"/>
        <vehicle id="3" x="190.74" y="991.75" angle="90.00" type="passenger" speed="15.27" pos="190.74" lane="edge1_0" slope="0.00"/>
        <vehicle id="4" x="104.90" y="995.05" angle="90.00" type="passenger" speed="11.83" pos="104.90" lane="edge1_1" slope="0.00"/>
        <vehicle id="50" x="165.98" y="995.05" angle="90.00" type="passenger" speed="11.73" pos="165.98" lane="edge1_1" slope="0.00"/>
        <vehicle id="51" x="135.78" y="998.35" angle="90.00" type="passenger" speed="13.51" pos="135.78" lane="edge1_2" slope="0.00"/>